 VARIABLES = X,Y,Z,DU1,DU2,DU3,U1,U2,U3,S11,S22,S33,S12,S13,S23,Vf
 ZONE, T="0.2000D+00" F=FEPOINT, I=   12 J=    2 ET=BRICK
   0.0000000000E+00   0.5841250151E-04   0.5841250151E-04   0.0000000000E+00   0.1752027833E-04   0.1752027833E-04   0.0000000000E+00   0.4089222318E-04   0.4089222318E-04   0.8826213596E+00   0.1432911398E+00   0.1432911398E+00   0.1600449563E-01   0.1600449563E-01   0.3013204730E-06   0.6756841293E-08
   0.1000886842E+01   0.1725202493E-03   0.1725202493E-03   0.6963771853E-04   0.3860596024E-05   0.3860596024E-05   0.8172042504E-03   0.1686596532E-03   0.1686596532E-03   0.8614109537E+00  -0.3661785873E-01  -0.3661785873E-01   0.1527043145E-01   0.1527043145E-01   0.2976927505E-06   0.1507841960E-04
   0.1000886842E+01   0.9998274798E+00   0.1725202492E-03   0.6963771853E-04  -0.3860596024E-05   0.3860596024E-05   0.8172042504E-03  -0.1686596532E-03   0.1686596532E-03   0.8614109537E+00  -0.3661785873E-01  -0.3661785873E-01  -0.1527043145E-01   0.1527043145E-01  -0.2976934973E-06   0.1507841960E-04
   0.0000000000E+00   0.9999415875E+00   0.5841250151E-04   0.0000000000E+00  -0.1752027833E-04   0.1752027833E-04   0.0000000000E+00  -0.4089222318E-04   0.4089222318E-04   0.8826213595E+00   0.1432911398E+00   0.1432911398E+00  -0.1600449563E-01   0.1600449563E-01  -0.3013206779E-06   0.6756841289E-08
   0.0000000000E+00   0.5841250151E-04   0.9999415875E+00   0.0000000000E+00   0.1752027833E-04  -0.1752027833E-04   0.0000000000E+00   0.4089222318E-04  -0.4089222318E-04   0.8826213595E+00   0.1432911398E+00   0.1432911398E+00   0.1600449563E-01  -0.1600449563E-01  -0.3013206779E-06   0.6756841289E-08
   0.1000886842E+01   0.1725202492E-03   0.9998274798E+00   0.6963771853E-04   0.3860596024E-05  -0.3860596024E-05   0.8172042504E-03   0.1686596532E-03  -0.1686596532E-03   0.8614109537E+00  -0.3661785873E-01  -0.3661785873E-01   0.1527043145E-01  -0.1527043145E-01  -0.2976934973E-06   0.1507841960E-04
   0.1000886842E+01   0.9998274798E+00   0.9998274798E+00   0.6963771853E-04  -0.3860596024E-05  -0.3860596024E-05   0.8172042504E-03  -0.1686596532E-03  -0.1686596532E-03   0.8614109536E+00  -0.3661785872E-01  -0.3661785872E-01  -0.1527043145E-01  -0.1527043145E-01   0.2976942441E-06   0.1507841960E-04
   0.0000000000E+00   0.9999415875E+00   0.9999415875E+00   0.0000000000E+00  -0.1752027833E-04  -0.1752027833E-04   0.0000000000E+00  -0.4089222318E-04  -0.4089222318E-04   0.8826213595E+00   0.1432911398E+00   0.1432911398E+00  -0.1600449563E-01  -0.1600449563E-01   0.3013208829E-06   0.6756841285E-08
   0.2002000000E+01   0.2959506272E-03   0.2959506272E-03   0.1000000000E-03  -0.7183555505E-05  -0.7183555505E-05   0.1900000000E-02   0.3031341827E-03   0.3031341827E-03   0.8015271501E+00  -0.1972464404E+00  -0.1972464404E+00   0.1370869198E-01   0.1370869198E-01   0.2775382243E-06   0.4391075055E-04
   0.2002000000E+01   0.9997040494E+00   0.2959506271E-03   0.1000000000E-03   0.7183555506E-05  -0.7183555504E-05   0.1900000000E-02  -0.3031341826E-03   0.3031341826E-03   0.8015271501E+00  -0.1972464404E+00  -0.1972464404E+00  -0.1370869198E-01   0.1370869198E-01  -0.2775394023E-06   0.4391075055E-04
   0.2002000000E+01   0.2959506271E-03   0.9997040494E+00   0.1000000000E-03  -0.7183555504E-05   0.7183555506E-05   0.1900000000E-02   0.3031341826E-03  -0.3031341826E-03   0.8015271501E+00  -0.1972464404E+00  -0.1972464404E+00   0.1370869198E-01  -0.1370869198E-01  -0.2775394023E-06   0.4391075055E-04
   0.2002000000E+01   0.9997040494E+00   0.9997040494E+00   0.1000000000E-03   0.7183555505E-05   0.7183555505E-05   0.1900000000E-02  -0.3031341826E-03  -0.3031341826E-03   0.8015271501E+00  -0.1972464404E+00  -0.1972464404E+00  -0.1370869198E-01  -0.1370869198E-01   0.2775405803E-06   0.4391075055E-04
     1     2     3     4     5     6     7     8
     2     9    10     3     6    11    12     7
 VARIABLES = X,Y,Z,DU1,DU2,DU3,U1,U2,U3,S11,S22,S33,S12,S13,S23,Vf
 ZONE, T="0.4000D+00" F=FEPOINT, I=   12 J=    2 ET=BRICK
   0.0000000000E+00   0.5336953179E-03   0.5336953179E-03   0.0000000000E+00   0.1088569666E-04   0.1088569666E-04   0.0000000000E+00   0.5228096213E-03   0.5228096213E-03   0.1052067585E+01  -0.3335704402E-01  -0.3335704402E-01  -0.8274430933E-02  -0.8274430933E-02   0.1166409584E-06   0.2981509566E-03
   0.1002236992E+01   0.4006879077E-03   0.4006879077E-03   0.7077694949E-04   0.9592808503E-05   0.9592808503E-05   0.2166215218E-02   0.3910950992E-03   0.3910950992E-03   0.1001256035E+01  -0.5650211110E-01  -0.5650211110E-01  -0.7344420305E-02  -0.7344420305E-02   0.9090573837E-07   0.2319310362E-03
   0.1002236992E+01   0.9995993121E+00   0.4006879077E-03   0.7077694949E-04  -0.9592808503E-05   0.9592808503E-05   0.2166215218E-02  -0.3910950992E-03   0.3910950992E-03   0.1001256035E+01  -0.5650211110E-01  -0.5650211110E-01   0.7344420309E-02  -0.7344420305E-02  -0.9090551998E-07   0.2319310361E-03
   0.0000000000E+00   0.9994663047E+00   0.5336953179E-03   0.0000000000E+00  -0.1088569666E-04   0.1088569666E-04   0.0000000000E+00  -0.5228096213E-03   0.5228096213E-03   0.1052067585E+01  -0.3335704402E-01  -0.3335704402E-01   0.8274430938E-02  -0.8274430933E-02  -0.1166410575E-06   0.2981509566E-03
   0.0000000000E+00   0.5336953179E-03   0.9994663047E+00   0.0000000000E+00   0.1088569666E-04  -0.1088569666E-04   0.0000000000E+00   0.5228096213E-03  -0.5228096213E-03   0.1052067585E+01  -0.3335704402E-01  -0.3335704402E-01  -0.8274430933E-02   0.8274430938E-02  -0.1166410575E-06   0.2981509566E-03
   0.1002236992E+01   0.4006879077E-03   0.9995993121E+00   0.7077694949E-04   0.9592808503E-05  -0.9592808503E-05   0.2166215218E-02   0.3910950992E-03  -0.3910950992E-03   0.1001256035E+01  -0.5650211110E-01  -0.5650211110E-01  -0.7344420305E-02   0.7344420309E-02  -0.9090551996E-07   0.2319310361E-03
   0.1002236992E+01   0.9995993121E+00   0.9995993121E+00   0.7077694949E-04  -0.9592808503E-05  -0.9592808503E-05   0.2166215218E-02  -0.3910950992E-03  -0.3910950992E-03   0.1001256035E+01  -0.5650211110E-01  -0.5650211110E-01   0.7344420308E-02   0.7344420308E-02   0.9090530155E-07   0.2319310361E-03
   0.0000000000E+00   0.9994663047E+00   0.9994663047E+00   0.0000000000E+00  -0.1088569666E-04  -0.1088569666E-04   0.0000000000E+00  -0.5228096213E-03  -0.5228096213E-03   0.1052067585E+01  -0.3335704401E-01  -0.3335704401E-01   0.8274430937E-02   0.8274430937E-02   0.1166411566E-06   0.2981509566E-03
   0.2004000000E+01   0.3518822074E-03   0.3518822074E-03   0.1000000000E-03   0.1168760678E-04   0.1168760678E-04   0.3900000000E-02   0.3401946006E-03   0.3401946006E-03   0.9519554786E+00  -0.8034828322E-01  -0.8034828322E-01  -0.6741272006E-02  -0.6741272006E-02   0.7645173776E-07   0.1765743980E-03
   0.2004000000E+01   0.9996481178E+00   0.3518822074E-03   0.1000000000E-03  -0.1168760678E-04   0.1168760678E-04   0.3900000000E-02  -0.3401946005E-03   0.3401946006E-03   0.9519554785E+00  -0.8034828322E-01  -0.8034828322E-01   0.6741272011E-02  -0.6741272006E-02  -0.7645117042E-07   0.1765743980E-03
   0.2004000000E+01   0.3518822074E-03   0.9996481178E+00   0.1000000000E-03   0.1168760678E-04  -0.1168760678E-04   0.3900000000E-02   0.3401946006E-03  -0.3401946005E-03   0.9519554785E+00  -0.8034828322E-01  -0.8034828322E-01  -0.6741272006E-02   0.6741272011E-02  -0.7645117043E-07   0.1765743980E-03
   0.2004000000E+01   0.9996481178E+00   0.9996481178E+00   0.1000000000E-03  -0.1168760678E-04  -0.1168760678E-04   0.3900000000E-02  -0.3401946005E-03  -0.3401946005E-03   0.9519554785E+00  -0.8034828321E-01  -0.8034828321E-01   0.6741272011E-02   0.6741272011E-02   0.7645060311E-07   0.1765743980E-03
     1     2     3     4     5     6     7     8
     2     9    10     3     6    11    12     7
 VARIABLES = X,Y,Z,DU1,DU2,DU3,U1,U2,U3,S11,S22,S33,S12,S13,S23,Vf
 ZONE, T="0.6000D+00" F=FEPOINT, I=   12 J=    2 ET=BRICK
   0.0000000000E+00   0.9145826942E-03   0.9145826942E-03   0.0000000000E+00   0.1215934070E-04   0.1215934070E-04   0.0000000000E+00   0.9024233535E-03   0.9024233535E-03   0.9849744824E+00  -0.8942982050E-01  -0.8942982050E-01  -0.1257375261E-01  -0.1257375261E-01   0.3505233863E-06   0.6312024402E-03
   0.1003390868E+01   0.6342423482E-03   0.6342423482E-03   0.5931311358E-04   0.1220796247E-04   0.1220796247E-04   0.3331555325E-02   0.6220343857E-03   0.6220343857E-03   0.1027783034E+01  -0.3348624331E-01  -0.3348624331E-01  -0.1197898516E-01  -0.1197898516E-01   0.3018438693E-06   0.4920666268E-03
   0.1003390868E+01   0.9993657577E+00   0.6342423482E-03   0.5931311358E-04  -0.1220796247E-04   0.1220796247E-04   0.3331555325E-02  -0.6220343857E-03   0.6220343857E-03   0.1027783034E+01  -0.3348624331E-01  -0.3348624331E-01   0.1197898516E-01  -0.1197898516E-01  -0.3018439163E-06   0.4920666268E-03
   0.0000000000E+00   0.9990854173E+00   0.9145826942E-03   0.0000000000E+00  -0.1215934070E-04   0.1215934070E-04   0.0000000000E+00  -0.9024233535E-03   0.9024233535E-03   0.9849744824E+00  -0.8942982050E-01  -0.8942982050E-01   0.1257375262E-01  -0.1257375261E-01  -0.3505233438E-06   0.6312024402E-03
   0.0000000000E+00   0.9145826942E-03   0.9990854173E+00   0.0000000000E+00   0.1215934070E-04  -0.1215934070E-04   0.0000000000E+00   0.9024233535E-03  -0.9024233535E-03   0.9849744824E+00  -0.8942982050E-01  -0.8942982050E-01  -0.1257375261E-01   0.1257375262E-01  -0.3505233438E-06   0.6312024402E-03
   0.1003390868E+01   0.6342423482E-03   0.9993657577E+00   0.5931311358E-04   0.1220796247E-04  -0.1220796247E-04   0.3331555325E-02   0.6220343857E-03  -0.6220343857E-03   0.1027783034E+01  -0.3348624331E-01  -0.3348624331E-01  -0.1197898516E-01   0.1197898516E-01  -0.3018439163E-06   0.4920666268E-03
   0.1003390868E+01   0.9993657577E+00   0.9993657577E+00   0.5931311358E-04  -0.1220796247E-04  -0.1220796247E-04   0.3331555325E-02  -0.6220343857E-03  -0.6220343857E-03   0.1027783034E+01  -0.3348624331E-01  -0.3348624331E-01   0.1197898516E-01   0.1197898516E-01   0.3018439633E-06   0.4920666268E-03
   0.0000000000E+00   0.9990854173E+00   0.9990854173E+00   0.0000000000E+00  -0.1215934070E-04  -0.1215934070E-04   0.0000000000E+00  -0.9024233535E-03  -0.9024233535E-03   0.9849744824E+00  -0.8942982049E-01  -0.8942982049E-01   0.1257375262E-01   0.1257375262E-01   0.3505233014E-06   0.6312024402E-03
   0.2006000000E+01   0.4838107503E-03   0.4838107503E-03   0.1000000000E-03   0.1371692931E-04   0.1371692931E-04   0.5900000000E-02   0.4700938210E-03   0.4700938210E-03   0.1071057027E+01   0.2220068682E-01   0.2220068682E-01  -0.1143883930E-01  -0.1143883930E-01   0.2552174870E-06   0.3715985495E-03
   0.2006000000E+01   0.9995161892E+00   0.4838107503E-03   0.1000000000E-03  -0.1371692931E-04   0.1371692931E-04   0.5900000000E-02  -0.4700938209E-03   0.4700938210E-03   0.1071057027E+01   0.2220068682E-01   0.2220068682E-01   0.1143883930E-01  -0.1143883930E-01  -0.2552176336E-06   0.3715985495E-03
   0.2006000000E+01   0.4838107503E-03   0.9995161892E+00   0.1000000000E-03   0.1371692931E-04  -0.1371692931E-04   0.5900000000E-02   0.4700938210E-03  -0.4700938209E-03   0.1071057027E+01   0.2220068682E-01   0.2220068682E-01  -0.1143883930E-01   0.1143883930E-01  -0.2552176335E-06   0.3715985495E-03
   0.2006000000E+01   0.9995161892E+00   0.9995161892E+00   0.1000000000E-03  -0.1371692931E-04  -0.1371692931E-04   0.5900000000E-02  -0.4700938209E-03  -0.4700938209E-03   0.1071057027E+01   0.2220068682E-01   0.2220068682E-01   0.1143883930E-01   0.1143883930E-01   0.2552177800E-06   0.3715985495E-03
     1     2     3     4     5     6     7     8
     2     9    10     3     6    11    12     7
 VARIABLES = X,Y,Z,DU1,DU2,DU3,U1,U2,U3,S11,S22,S33,S12,S13,S23,Vf
 ZONE, T="0.8000D+00" F=FEPOINT, I=   12 J=    2 ET=BRICK
   0.0000000000E+00   0.1195813114E-02   0.1195813114E-02   0.0000000000E+00   0.1663275199E-04   0.1663275199E-04   0.0000000000E+00   0.1179180362E-02   0.1179180362E-02   0.1023455075E+01  -0.4454080018E-01  -0.4454080018E-01  -0.8154020150E-02  -0.8154020150E-02   0.1888965957E-06   0.9280110480E-03
   0.1004464108E+01   0.8746838851E-03   0.8746838851E-03   0.4958968893E-04   0.1318379017E-04   0.1318379017E-04   0.4414518092E-02   0.8615000950E-03   0.8615000950E-03   0.1047879291E+01  -0.1380689691E-01  -0.1380689691E-01  -0.7770588326E-02  -0.7770588326E-02   0.1647915731E-06   0.7589143277E-03
   0.1004464108E+01   0.9991253161E+00   0.8746838851E-03   0.4958968893E-04  -0.1318379017E-04   0.1318379017E-04   0.4414518092E-02  -0.8615000949E-03   0.8615000950E-03   0.1047879291E+01  -0.1380689691E-01  -0.1380689691E-01   0.7770588325E-02  -0.7770588326E-02  -0.1647917603E-06   0.7589143277E-03
   0.0000000000E+00   0.9988041869E+00   0.1195813114E-02   0.0000000000E+00  -0.1663275199E-04   0.1663275199E-04   0.0000000000E+00  -0.1179180362E-02   0.1179180362E-02   0.1023455075E+01  -0.4454080017E-01  -0.4454080017E-01   0.8154020149E-02  -0.8154020149E-02  -0.1888965434E-06   0.9280110479E-03
   0.0000000000E+00   0.1195813114E-02   0.9988041869E+00   0.0000000000E+00   0.1663275199E-04  -0.1663275199E-04   0.0000000000E+00   0.1179180362E-02  -0.1179180362E-02   0.1023455075E+01  -0.4454080017E-01  -0.4454080017E-01  -0.8154020149E-02   0.8154020149E-02  -0.1888965434E-06   0.9280110479E-03
   0.1004464108E+01   0.8746838851E-03   0.9991253161E+00   0.4958968893E-04   0.1318379017E-04  -0.1318379017E-04   0.4414518092E-02   0.8615000950E-03  -0.8615000949E-03   0.1047879291E+01  -0.1380689691E-01  -0.1380689691E-01  -0.7770588326E-02   0.7770588325E-02  -0.1647917603E-06   0.7589143277E-03
   0.1004464108E+01   0.9991253161E+00   0.9991253161E+00   0.4958968893E-04  -0.1318379017E-04  -0.1318379017E-04   0.4414518092E-02  -0.8615000949E-03  -0.8615000949E-03   0.1047879291E+01  -0.1380689691E-01  -0.1380689691E-01   0.7770588325E-02   0.7770588325E-02   0.1647919475E-06   0.7589143276E-03
   0.0000000000E+00   0.9988041869E+00   0.9988041869E+00   0.0000000000E+00  -0.1663275199E-04  -0.1663275199E-04   0.0000000000E+00  -0.1179180362E-02  -0.1179180362E-02   0.1023455075E+01  -0.4454080017E-01  -0.4454080017E-01   0.8154020149E-02   0.8154020149E-02   0.1888964911E-06   0.9280110479E-03
   0.2008000000E+01   0.6984929385E-03   0.6984929385E-03   0.1000000000E-03   0.9953860108E-05   0.9953860108E-05   0.7900000000E-02   0.6885390784E-03   0.6885390784E-03   0.1072411944E+01   0.1682881097E-01   0.1682881097E-01  -0.7398675928E-02  -0.7398675928E-02   0.1405089313E-06   0.6113772373E-03
   0.2008000000E+01   0.9993015071E+00   0.6984929385E-03   0.1000000000E-03  -0.9953860107E-05   0.9953860108E-05   0.7900000000E-02  -0.6885390783E-03   0.6885390784E-03   0.1072411944E+01   0.1682881097E-01   0.1682881097E-01   0.7398675927E-02  -0.7398675928E-02  -0.1405093175E-06   0.6113772373E-03
   0.2008000000E+01   0.6984929385E-03   0.9993015071E+00   0.1000000000E-03   0.9953860108E-05  -0.9953860107E-05   0.7900000000E-02   0.6885390784E-03  -0.6885390783E-03   0.1072411944E+01   0.1682881097E-01   0.1682881097E-01  -0.7398675928E-02   0.7398675927E-02  -0.1405093175E-06   0.6113772373E-03
   0.2008000000E+01   0.9993015071E+00   0.9993015071E+00   0.1000000000E-03  -0.9953860107E-05  -0.9953860107E-05   0.7900000000E-02  -0.6885390783E-03  -0.6885390783E-03   0.1072411944E+01   0.1682881097E-01   0.1682881097E-01   0.7398675927E-02   0.7398675927E-02   0.1405097037E-06   0.6113772373E-03
     1     2     3     4     5     6     7     8
     2     9    10     3     6    11    12     7
 VARIABLES = X,Y,Z,DU1,DU2,DU3,U1,U2,U3,S11,S22,S33,S12,S13,S23,Vf
 ZONE, T="0.1000D+01" F=FEPOINT, I=   12 J=    2 ET=BRICK
   0.0000000000E+00   0.1433555494E-02   0.1433555494E-02   0.0000000000E+00   0.1601796842E-04   0.1601796842E-04   0.0000000000E+00   0.1417537525E-02   0.1417537525E-02   0.1079811763E+01   0.1749704184E-01   0.1749704184E-01  -0.2453654250E-02  -0.2453654250E-02   0.5954244572E-07   0.1212011021E-02
   0.1005499918E+01   0.1120235442E-02   0.1120235442E-02   0.4782770751E-04   0.1320086133E-04   0.1320086133E-04   0.5452090495E-02   0.1107034581E-02   0.1107034581E-02   0.1058202142E+01  -0.2347108824E-02  -0.2347108824E-02  -0.2426329729E-02  -0.2426329729E-02   0.5247623900E-07   0.1032565921E-02
   0.1005499918E+01   0.9988797646E+00   0.1120235442E-02   0.4782770751E-04  -0.1320086133E-04   0.1320086133E-04   0.5452090495E-02  -0.1107034581E-02   0.1107034581E-02   0.1058202142E+01  -0.2347108824E-02  -0.2347108824E-02   0.2426329729E-02  -0.2426329728E-02  -0.5247622276E-07   0.1032565921E-02
   0.0000000000E+00   0.9985664445E+00   0.1433555494E-02   0.0000000000E+00  -0.1601796842E-04   0.1601796842E-04   0.0000000000E+00  -0.1417537525E-02   0.1417537525E-02   0.1079811763E+01   0.1749704184E-01   0.1749704184E-01   0.2453654250E-02  -0.2453654250E-02  -0.5954241034E-07   0.1212011021E-02
   0.0000000000E+00   0.1433555494E-02   0.9985664445E+00   0.0000000000E+00   0.1601796842E-04  -0.1601796842E-04   0.0000000000E+00   0.1417537525E-02  -0.1417537525E-02   0.1079811763E+01   0.1749704184E-01   0.1749704184E-01  -0.2453654250E-02   0.2453654250E-02  -0.5954241035E-07   0.1212011021E-02
   0.1005499918E+01   0.1120235442E-02   0.9988797646E+00   0.4782770751E-04   0.1320086133E-04  -0.1320086133E-04   0.5452090495E-02   0.1107034581E-02  -0.1107034581E-02   0.1058202142E+01  -0.2347108824E-02  -0.2347108824E-02  -0.2426329728E-02   0.2426329729E-02  -0.5247622279E-07   0.1032565921E-02
   0.1005499918E+01   0.9988797646E+00   0.9988797646E+00   0.4782770751E-04  -0.1320086133E-04  -0.1320086133E-04   0.5452090495E-02  -0.1107034581E-02  -0.1107034581E-02   0.1058202142E+01  -0.2347108824E-02  -0.2347108824E-02   0.2426329729E-02   0.2426329729E-02   0.5247620656E-07   0.1032565921E-02
   0.0000000000E+00   0.9985664445E+00   0.9985664445E+00   0.0000000000E+00  -0.1601796842E-04  -0.1601796842E-04   0.0000000000E+00  -0.1417537525E-02  -0.1417537525E-02   0.1079811763E+01   0.1749704184E-01   0.1749704184E-01   0.2453654250E-02   0.2453654250E-02   0.5954237494E-07   0.1212011021E-02
   0.2010000000E+01   0.9506236253E-03   0.9506236253E-03   0.1000000000E-03   0.1017669396E-04   0.1017669396E-04   0.9900000000E-02   0.9404469314E-03   0.9404469314E-03   0.1036594139E+01  -0.2221639971E-01  -0.2221639971E-01  -0.2407801809E-02  -0.2407801809E-02   0.4558027747E-07   0.8750920901E-03
   0.2010000000E+01   0.9990493764E+00   0.9506236253E-03   0.1000000000E-03  -0.1017669396E-04   0.1017669396E-04   0.9900000000E-02  -0.9404469313E-03   0.9404469314E-03   0.1036594139E+01  -0.2221639971E-01  -0.2221639971E-01   0.2407801810E-02  -0.2407801809E-02  -0.4558021418E-07   0.8750920901E-03
   0.2010000000E+01   0.9506236253E-03   0.9990493764E+00   0.1000000000E-03   0.1017669396E-04  -0.1017669396E-04   0.9900000000E-02   0.9404469314E-03  -0.9404469313E-03   0.1036594139E+01  -0.2221639971E-01  -0.2221639971E-01  -0.2407801809E-02   0.2407801810E-02  -0.4558021420E-07   0.8750920901E-03
   0.2010000000E+01   0.9990493764E+00   0.9990493764E+00   0.1000000000E-03  -0.1017669396E-04  -0.1017669396E-04   0.9900000000E-02  -0.9404469313E-03  -0.9404469313E-03   0.1036594139E+01  -0.2221639971E-01  -0.2221639971E-01   0.2407801810E-02   0.2407801810E-02   0.4558015093E-07   0.8750920901E-03
     1     2     3     4     5     6     7     8
     2     9    10     3     6    11    12     7
 VARIABLES = X,Y,Z,DU1,DU2,DU3,U1,U2,U3,S11,S22,S33,S12,S13,S23,Vf
 ZONE, T="0.1200D+01" F=FEPOINT, I=   12 J=    2 ET=BRICK
   0.0000000000E+00   0.1675609248E-02   0.1675609248E-02   0.0000000000E+00   0.1255363009E-04   0.1255363009E-04   0.0000000000E+00   0.1663055618E-02   0.1663055618E-02   0.1085013124E+01   0.2644928491E-01   0.2644928491E-01   0.9749906993E-06   0.9749906993E-06   0.2158744991E-07   0.1496462018E-02
   0.1006506477E+01   0.1367503186E-02   0.1367503186E-02   0.5027158750E-04   0.1286832280E-04   0.1286832280E-04   0.6456205882E-02   0.1354634863E-02   0.1354634863E-02   0.1061423264E+01   0.2256693847E-02   0.2256693847E-02  -0.1297210512E-03  -0.1297210512E-03   0.1942893875E-07   0.1312283627E-02
   0.1006506477E+01   0.9986324968E+00   0.1367503186E-02   0.5027158750E-04  -0.1286832280E-04   0.1286832280E-04   0.6456205882E-02  -0.1354634863E-02   0.1354634863E-02   0.1061423264E+01   0.2256693847E-02   0.2256693847E-02   0.1297210508E-03  -0.1297210512E-03  -0.1942891151E-07   0.1312283627E-02
   0.0000000000E+00   0.9983243908E+00   0.1675609248E-02   0.0000000000E+00  -0.1255363009E-04   0.1255363009E-04   0.0000000000E+00  -0.1663055618E-02   0.1663055618E-02   0.1085013124E+01   0.2644928491E-01   0.2644928491E-01  -0.9749910822E-06   0.9749907025E-06  -0.2158744111E-07   0.1496462018E-02
   0.0000000000E+00   0.1675609248E-02   0.9983243908E+00   0.0000000000E+00   0.1255363009E-04  -0.1255363009E-04   0.0000000000E+00   0.1663055618E-02  -0.1663055618E-02   0.1085013124E+01   0.2644928491E-01   0.2644928491E-01   0.9749907025E-06  -0.9749910822E-06  -0.2158744111E-07   0.1496462018E-02
   0.1006506477E+01   0.1367503186E-02   0.9986324968E+00   0.5027158750E-04   0.1286832280E-04  -0.1286832280E-04   0.6456205882E-02   0.1354634863E-02  -0.1354634863E-02   0.1061423264E+01   0.2256693847E-02   0.2256693847E-02  -0.1297210512E-03   0.1297210508E-03  -0.1942891150E-07   0.1312283627E-02
   0.1006506477E+01   0.9986324968E+00   0.9986324968E+00   0.5027158750E-04  -0.1286832280E-04  -0.1286832280E-04   0.6456205882E-02  -0.1354634863E-02  -0.1354634863E-02   0.1061423264E+01   0.2256693847E-02   0.2256693847E-02   0.1297210508E-03   0.1297210508E-03   0.1942888426E-07   0.1312283627E-02
   0.0000000000E+00   0.9983243908E+00   0.9983243908E+00   0.0000000000E+00  -0.1255363009E-04  -0.1255363009E-04   0.0000000000E+00  -0.1663055618E-02  -0.1663055618E-02   0.1085013124E+01   0.2644928491E-01   0.2644928491E-01  -0.9749910854E-06  -0.9749910854E-06   0.2158743228E-07   0.1496462018E-02
   0.2012000000E+01   0.1199469717E-02   0.1199469717E-02   0.1000000000E-03   0.1306322010E-04   0.1306322010E-04   0.1190000000E-01   0.1186406497E-02   0.1186406497E-02   0.1037841922E+01  -0.2198913444E-01  -0.2198913444E-01  -0.2644140874E-03  -0.2644140874E-03   0.1740788542E-07   0.1150015115E-02
   0.2012000000E+01   0.9988005303E+00   0.1199469717E-02   0.1000000000E-03  -0.1306322010E-04   0.1306322010E-04   0.1190000000E-01  -0.1186406497E-02   0.1186406497E-02   0.1037841922E+01  -0.2198913444E-01  -0.2198913444E-01   0.2644140869E-03  -0.2644140874E-03  -0.1740782375E-07   0.1150015115E-02
   0.2012000000E+01   0.1199469717E-02   0.9988005303E+00   0.1000000000E-03   0.1306322010E-04  -0.1306322010E-04   0.1190000000E-01   0.1186406497E-02  -0.1186406497E-02   0.1037841922E+01  -0.2198913444E-01  -0.2198913444E-01  -0.2644140874E-03   0.2644140869E-03  -0.1740782375E-07   0.1150015115E-02
   0.2012000000E+01   0.9988005303E+00   0.9988005303E+00   0.1000000000E-03  -0.1306322010E-04  -0.1306322010E-04   0.1190000000E-01  -0.1186406497E-02  -0.1186406497E-02   0.1037841922E+01  -0.2198913444E-01  -0.2198913444E-01   0.2644140869E-03   0.2644140869E-03   0.1740776214E-07   0.1150015115E-02
     1     2     3     4     5     6     7     8
     2     9    10     3     6    11    12     7
 VARIABLES = X,Y,Z,DU1,DU2,DU3,U1,U2,U3,S11,S22,S33,S12,S13,S23,Vf
 ZONE, T="0.1400D+01" F=FEPOINT, I=   12 J=    2 ET=BRICK
   0.0000000000E+00   0.1929119386E-02   0.1929119386E-02   0.0000000000E+00   0.1108815553E-04   0.1108815553E-04   0.0000000000E+00   0.1918031230E-02   0.1918031230E-02   0.1059969942E+01   0.2322061401E-02   0.2322061401E-02  -0.2148659071E-03  -0.2148659071E-03   0.8063334808E-08   0.1785643850E-02
   0.1007499220E+01   0.1614612405E-02   0.1614612405E-02   0.5139134050E-04   0.1255624754E-04   0.1255624754E-04   0.7447828756E-02   0.1602056157E-02   0.1602056157E-02   0.1061193639E+01   0.2994670104E-02   0.2994670104E-02  -0.2873688001E-03  -0.2873688001E-03   0.7489693022E-08   0.1597447928E-02
   0.1007499220E+01   0.9983853876E+00   0.1614612405E-02   0.5139134050E-04  -0.1255624754E-04   0.1255624754E-04   0.7447828756E-02  -0.1602056157E-02   0.1602056157E-02   0.1061193639E+01   0.2994670103E-02   0.2994670103E-02   0.2873688003E-03  -0.2873688001E-03  -0.7489703321E-08   0.1597447928E-02
   0.0000000000E+00   0.9980708806E+00   0.1929119386E-02   0.0000000000E+00  -0.1108815553E-04   0.1108815553E-04   0.0000000000E+00  -0.1918031230E-02   0.1918031230E-02   0.1059969942E+01   0.2322061401E-02   0.2322061401E-02   0.2148659069E-03  -0.2148659071E-03  -0.8063329386E-08   0.1785643850E-02
   0.0000000000E+00   0.1929119386E-02   0.9980708806E+00   0.0000000000E+00   0.1108815553E-04  -0.1108815553E-04   0.0000000000E+00   0.1918031230E-02  -0.1918031230E-02   0.1059969942E+01   0.2322061401E-02   0.2322061401E-02  -0.2148659071E-03   0.2148659069E-03  -0.8063329396E-08   0.1785643850E-02
   0.1007499220E+01   0.1614612405E-02   0.9983853876E+00   0.5139134050E-04   0.1255624754E-04  -0.1255624754E-04   0.7447828756E-02   0.1602056157E-02  -0.1602056157E-02   0.1061193639E+01   0.2994670103E-02   0.2994670103E-02  -0.2873688001E-03   0.2873688003E-03  -0.7489703312E-08   0.1597447928E-02
   0.1007499220E+01   0.9983853876E+00   0.9983853876E+00   0.5139134050E-04  -0.1255624754E-04  -0.1255624754E-04   0.7447828756E-02  -0.1602056157E-02  -0.1602056157E-02   0.1061193639E+01   0.2994670103E-02   0.2994670103E-02   0.2873688002E-03   0.2873688002E-03   0.7489713624E-08   0.1597447928E-02
   0.0000000000E+00   0.9980708806E+00   0.9980708806E+00   0.0000000000E+00  -0.1108815553E-04  -0.1108815553E-04   0.0000000000E+00  -0.1918031230E-02  -0.1918031230E-02   0.1059969942E+01   0.2322061401E-02   0.2322061401E-02   0.2148659069E-03   0.2148659069E-03   0.8063323972E-08   0.1785643850E-02
   0.2014000000E+01   0.1439351550E-02   0.1439351550E-02   0.1000000000E-03   0.1403832154E-04   0.1403832154E-04   0.1390000000E-01   0.1425313228E-02   0.1425313228E-02   0.1062467636E+01   0.3538244152E-02   0.3538244152E-02  -0.3618901974E-03  -0.3618901974E-03   0.6970912129E-08   0.1431445631E-02
   0.2014000000E+01   0.9985606485E+00   0.1439351550E-02   0.1000000000E-03  -0.1403832154E-04   0.1403832154E-04   0.1390000000E-01  -0.1425313228E-02   0.1425313228E-02   0.1062467636E+01   0.3538244151E-02   0.3538244152E-02   0.3618901973E-03  -0.3618901974E-03  -0.6970958129E-08   0.1431445631E-02
   0.2014000000E+01   0.1439351550E-02   0.9985606485E+00   0.1000000000E-03   0.1403832154E-04  -0.1403832154E-04   0.1390000000E-01   0.1425313228E-02  -0.1425313228E-02   0.1062467636E+01   0.3538244152E-02   0.3538244151E-02  -0.3618901974E-03   0.3618901973E-03  -0.6970958114E-08   0.1431445631E-02
   0.2014000000E+01   0.9985606485E+00   0.9985606485E+00   0.1000000000E-03  -0.1403832154E-04  -0.1403832154E-04   0.1390000000E-01  -0.1425313228E-02  -0.1425313228E-02   0.1062467636E+01   0.3538244151E-02   0.3538244151E-02   0.3618901973E-03   0.3618901973E-03   0.6971004117E-08   0.1431445631E-02
     1     2     3     4     5     6     7     8
     2     9    10     3     6    11    12     7
 VARIABLES = X,Y,Z,DU1,DU2,DU3,U1,U2,U3,S11,S22,S33,S12,S13,S23,Vf
 ZONE, T="0.1600D+01" F=FEPOINT, I=   12 J=    2 ET=BRICK
   0.0000000000E+00   0.2181231938E-02   0.2181231938E-02   0.0000000000E+00   0.1203231984E-04   0.1203231984E-04   0.0000000000E+00   0.2169199618E-02   0.2169199618E-02   0.1048142787E+01  -0.9826022589E-02  -0.9826022589E-02  -0.6363151214E-03  -0.6363151214E-03   0.3404669235E-08   0.2080037133E-02
   0.1008495817E+01   0.1861393261E-02   0.1861393261E-02   0.5044125047E-04   0.1237483971E-04   0.1237483971E-04   0.8445375605E-02   0.1849018422E-02   0.1849018422E-02   0.1059803614E+01   0.2198186729E-02   0.2198186729E-02  -0.6393465527E-03  -0.6393465527E-03   0.3191434622E-08   0.1887861772E-02
   0.1008495817E+01   0.9981386067E+00   0.1861393261E-02   0.5044125047E-04  -0.1237483971E-04   0.1237483971E-04   0.8445375605E-02  -0.1849018422E-02   0.1849018422E-02   0.1059803614E+01   0.2198186729E-02   0.2198186729E-02   0.6393465527E-03  -0.6393465526E-03  -0.3191424210E-08   0.1887861772E-02
   0.0000000000E+00   0.9978187681E+00   0.2181231938E-02   0.0000000000E+00  -0.1203231984E-04   0.1203231984E-04   0.0000000000E+00  -0.2169199618E-02   0.2169199618E-02   0.1048142787E+01  -0.9826022589E-02  -0.9826022589E-02   0.6363151212E-03  -0.6363151214E-03  -0.3404675237E-08   0.2080037133E-02
   0.0000000000E+00   0.2181231938E-02   0.9978187681E+00   0.0000000000E+00   0.1203231984E-04  -0.1203231984E-04   0.0000000000E+00   0.2169199618E-02  -0.2169199618E-02   0.1048142787E+01  -0.9826022589E-02  -0.9826022589E-02  -0.6363151214E-03   0.6363151212E-03  -0.3404675232E-08   0.2080037133E-02
   0.1008495817E+01   0.1861393261E-02   0.9981386067E+00   0.5044125047E-04   0.1237483971E-04  -0.1237483971E-04   0.8445375605E-02   0.1849018422E-02  -0.1849018422E-02   0.1059803614E+01   0.2198186729E-02   0.2198186729E-02  -0.6393465526E-03   0.6393465527E-03  -0.3191424198E-08   0.1887861772E-02
   0.1008495817E+01   0.9981386067E+00   0.9981386067E+00   0.5044125047E-04  -0.1237483971E-04  -0.1237483971E-04   0.8445375605E-02  -0.1849018422E-02  -0.1849018422E-02   0.1059803614E+01   0.2198186729E-02   0.2198186729E-02   0.6393465527E-03   0.6393465527E-03   0.3191413776E-08   0.1887861772E-02
   0.0000000000E+00   0.9978187681E+00   0.9978187681E+00   0.0000000000E+00  -0.1203231984E-04  -0.1203231984E-04   0.0000000000E+00  -0.2169199618E-02  -0.2169199618E-02   0.1048142787E+01  -0.9826022589E-02  -0.9826022589E-02   0.6363151212E-03   0.6363151212E-03   0.3404681213E-08   0.2080037133E-02