 VARIABLES = X,Y,DU1,DU2,U1,U2,S11,S22,S33,S12
 ZONE, T="0.5000D+01" F=FEPOINT, I= 2593 J= 4984
   0.3574529554E-01  -0.8251739473E-01   0.2958854273E-03   0.4922413422E-04   0.1183541709E-02   0.1968965369E-03  -0.1281744185E-01   0.2265217352E-02   0.3165667350E-02   0.7885388078E-02
   0.1875985079E-01  -0.7218711132E-01   0.2871584984E-03   0.3312517670E-04   0.1148633994E-02   0.1325007068E-03  -0.3710369995E-02  -0.8475031971E-02   0.3655620590E-02   0.6060808912E-02
   0.2155777458E-01  -0.9982189216E-01   0.3115549951E-03   0.3562176858E-04   0.1246219980E-02   0.1424870743E-03  -0.5360067792E-02  -0.5008477237E-02   0.3110563509E-02   0.1349840734E-01
   0.2725303312E-01  -0.7735145652E-01   0.2916137647E-03   0.4133469558E-04   0.1166455059E-02   0.1653387823E-03   0.1254076902E-02  -0.2826228238E-02   0.4716454008E-03   0.2468059893E-01
   0.2015795403E-01  -0.8600393719E-01   0.2991852061E-03   0.3448568291E-04   0.1196740824E-02   0.1379427316E-03  -0.1481421396E-01   0.5798555590E-03   0.4270307521E-02   0.1751324953E-01
   0.2865068734E-01  -0.9116955316E-01   0.3035506680E-03   0.4244106764E-04   0.1214202672E-02   0.1697642705E-03  -0.1467191648E-01   0.3660970179E-02   0.3303283890E-02   0.5234609921E-02
  -0.8686262204E-02  -0.4570855960E-01   0.3836303516E-04   0.2333369913E-04   0.1534521407E-03   0.9333479652E-04   0.4526399235E-02  -0.3836236536E-01   0.1015078984E-01  -0.5282957319E-02
  -0.6903343790E-02  -0.3611156869E-01   0.4957291203E-04   0.2045302223E-04   0.1982916481E-03   0.8181208893E-04   0.6059324591E-02  -0.4778818746E-01   0.1251865886E-01   0.7414278923E-03
  -0.1546145964E-01  -0.3945158329E-01   0.4523175110E-04   0.3101472159E-04   0.1809270044E-03   0.1240588864E-03   0.1778380560E-01   0.1987715965E-02  -0.5931456471E-02   0.7716202910E-02
  -0.7795809407E-02  -0.4090979932E-01   0.4376664456E-04   0.2194595697E-04   0.1750665782E-03   0.8778382788E-04  -0.2805504545E-02  -0.4228186553E-01   0.1352621102E-01  -0.1560073612E-01
  -0.1118268121E-01  -0.3778074998E-01   0.4734647712E-04   0.2589908410E-04   0.1893859085E-03   0.1035963364E-03   0.9352774584E-02  -0.2273956280E-01   0.4016036464E-02  -0.6485995095E-03
  -0.1207433414E-01  -0.4258047559E-01   0.4170285125E-04   0.2709374224E-04   0.1668114050E-03   0.1083749690E-03   0.7679166200E-02  -0.1237837385E-01   0.1409762295E-02  -0.1985222727E-02
  -0.1388245878E+00  -0.6533404766E-01   0.9186846802E-05   0.1090832877E-03   0.3674738721E-04   0.4363331507E-03   0.7795304763E-01  -0.4402100377E-02  -0.2206528418E-01   0.1050875787E-01
  -0.1296885672E+00  -0.8268561521E-01   0.3989354441E-05   0.1071372373E-03   0.1595741776E-04   0.4285489491E-03   0.2503856407E-01  -0.1499625053E-02  -0.7061681706E-02   0.7512993930E-02
  -0.1194193302E+00  -0.6681437866E-01   0.1124416935E-04   0.1030369088E-03   0.4497667741E-04   0.4121476350E-03   0.6626374339E-01  -0.3205585553E-02  -0.1891744735E-01   0.1412021649E-01
  -0.1342556581E+00  -0.7400902020E-01   0.6771984830E-05   0.1082725203E-03   0.2708793932E-04   0.4330900811E-03   0.5002414409E-01  -0.3237002379E-02  -0.1403614251E-01   0.9955330039E-02
  -0.1245553292E+00  -0.7474931355E-01   0.7341351474E-05   0.1052244902E-03   0.2936540590E-04   0.4208979607E-03   0.4329253122E-01  -0.2541964722E-02  -0.1222516995E-01   0.1203973090E-01
  -0.1291216368E+00  -0.6607305955E-01   0.1028063180E-04   0.1062900691E-03   0.4112252721E-04   0.4251602763E-03   0.7486910171E-01  -0.2471893183E-02  -0.2171916256E-01   0.1451900013E-01
  -0.1816777740E+00  -0.7251098490E-01   0.2113001080E-05   0.1169657000E-03   0.8452004322E-05   0.4678627999E-03   0.6428868970E-01  -0.3036172396E-02  -0.1837575519E-01   0.2696793921E-02
  -0.1818743488E+00  -0.5060551939E-01   0.4187434668E-05   0.1152204828E-03   0.1674973867E-04   0.4608819314E-03   0.1195923961E+00  -0.6370685695E-02  -0.3396651311E-01   0.3689121389E-02
  -0.2000000030E+00  -0.5941605619E-01   0.0000000000E+00   0.1167885021E-03   0.0000000000E+00   0.4671540085E-03   0.9813984948E-01  -0.4620480500E-02  -0.2805581069E-01   0.2758114142E-02
  -0.1817760873E+00  -0.6155747783E-01   0.3144938065E-05   0.1162479537E-03   0.1257975226E-04   0.4649918148E-03   0.9688892148E-01  -0.4405627900E-02  -0.2774498807E-01   0.2879656682E-02
  -0.1909382538E+00  -0.5500976287E-01   0.1879637169E-05   0.1162091053E-03   0.7518548678E-05   0.4648364212E-03   0.1152872088E+00  -0.5840694279E-02  -0.3283395436E-01   0.2507301052E-02
  -0.1908373253E+00  -0.6596233690E-01   0.1370533232E-05   0.1171141994E-03   0.5482132928E-05   0.4684567977E-03   0.7126879684E-01  -0.2794349327E-02  -0.2054233426E-01   0.1447052101E-02
  -0.1150229854E-02  -0.5210941822E-02   0.1102043272E-03   0.8108619599E-05   0.4408173088E-03   0.3243447839E-04   0.5569334462E-01   0.8332802433E-01  -0.4170641069E-01   0.1028155244E+00
   0.5692023015E-03  -0.4332820769E-02   0.1138404603E-03   0.1601898219E-05   0.4553618412E-03   0.6407592876E-05   0.2549561209E-01   0.7783645847E-01  -0.3099962117E-01   0.6462214504E-01
  -0.7627748419E-03  -0.3501224894E-02   0.1173431296E-03   0.7239895135E-05   0.4693725185E-03   0.2895958054E-04   0.9416313755E-01   0.1747016388E+00  -0.8065943290E-01   0.1610187850E+00
  -0.2909087361E-03  -0.4770824362E-02   0.1119434016E-03   0.5066645599E-05   0.4477736063E-03   0.2026658240E-04   0.2758385032E-01   0.3833743392E-02  -0.9425278112E-02   0.3167830328E-01
  -0.9728892817E-04  -0.3917365299E-02   0.1154912630E-03   0.4352450257E-05   0.4619650519E-03   0.1740980103E-04   0.3063409609E-01   0.1097684999E+00  -0.4212077878E-01   0.7311215647E-01
  -0.9574234648E-03  -0.4356128191E-02   0.1135895050E-03   0.7665337832E-05   0.4543580202E-03   0.3066135133E-04  -0.3739441642E-01   0.1315037423E+00  -0.2823279778E-01   0.5065896850E-01
  -0.1836744982E+00   0.6708903919E-01   0.1296715726E-04   0.8677603775E-04   0.5186862904E-04   0.3471041510E-03   0.4391039402E+00  -0.4419765918E-02  -0.1304052523E+00  -0.3607776255E-02
  -0.1728657808E+00   0.8218058619E-01   0.2340024533E-04   0.8005285763E-04   0.9360098132E-04   0.3202114305E-03   0.4711632241E+00  -0.2649529096E-02  -0.1405541085E+00  -0.3775678127E-02
  -0.2000000030E+00   0.8041357732E-01   0.0000000000E+00   0.8271582333E-04   0.0000000000E+00   0.3308632933E-03   0.4823540423E+00  -0.1917920913E-02  -0.1441308364E+00  -0.2754548929E-02
  -0.1782711189E+00   0.7463544490E-01   0.1798782825E-04   0.8354163970E-04   0.7195131301E-04   0.3341665588E-03   0.4619899508E+00  -0.2410202970E-02  -0.1378739243E+00  -0.3522212059E-02
  -0.1864331208E+00   0.8129959868E-01   0.1165583207E-04   0.8188697641E-04   0.4662332829E-04   0.3275479056E-03   0.4627829209E+00  -0.1148326551E-02  -0.1384903783E+00  -0.2245158021E-02
  -0.1918360283E+00   0.7375241481E-01   0.6729542818E-05   0.8496724298E-04   0.2691817127E-04   0.3398689719E-03   0.4553898516E+00  -0.2814524089E-02  -0.1357725983E+00  -0.1525338544E-02
  -0.1508026120E+00   0.8240468668E-01   0.4233120531E-04   0.7538769605E-04   0.1693248212E-03   0.3015507842E-03   0.4634222645E+00  -0.3726121468E-02  -0.1379088429E+00  -0.7355192095E-02
  -0.1297579888E+00   0.8332885963E-01   0.6038184137E-04   0.6823870522E-04   0.2415273655E-03   0.2729548209E-03   0.4594173923E+00  -0.4587263845E-02  -0.1364490385E+00  -0.1218868838E-01
  -0.1397150107E+00   0.1003263439E+00   0.5699806441E-04   0.6526857735E-04   0.2279922576E-03   0.2610743094E-03   0.4704326248E+00  -0.2048842783E-02  -0.1405151346E+00  -0.8574409147E-02
  -0.1402801811E+00   0.8286824378E-01   0.5138038012E-04   0.7210731531E-04   0.2055215205E-03   0.2884292612E-03   0.4656071030E+00  -0.5577434022E-04  -0.1396653986E+00  -0.1185390966E-01
  -0.1347360584E+00   0.9182830658E-01   0.5877672672E-04   0.6689529564E-04   0.2351069069E-03   0.2675811826E-03   0.4820936156E+00  -0.2329032529E-02  -0.1439293749E+00  -0.9821330191E-02
  -0.1452603475E+00   0.9136617818E-01   0.4935590388E-04   0.7045991552E-04   0.1974236155E-03   0.2818396621E-03   0.4801026819E+00  -0.1982612436E-02  -0.1434360208E+00  -0.3262492375E-02
  -0.3922378130E-04   0.5662646831E-03   0.1465183981E-03   0.6302425019E-05   0.5860735926E-03   0.2520970008E-04   0.2687602903E+01   0.1080875235E+01  -0.1130543441E+01   0.8335288474E-01
   0.3736342165E-03   0.4947802874E-03   0.1484366363E-03   0.4348625883E-05   0.5937465452E-03   0.1739450353E-04   0.3209102036E+01   0.1750646169E+01  -0.1487924462E+01  -0.1742070132E+00
   0.4269795873E-03   0.9142820576E-03   0.1490671183E-03   0.4768256921E-05   0.5962684730E-03   0.1907302769E-04   0.2595622249E+01   0.1632104682E+01  -0.1268318079E+01  -0.1095663737E+00
   0.1671095481E-03   0.5307509511E-03   0.1474583774E-03   0.5371215624E-05   0.5898335097E-03   0.2148486249E-04   0.3593523937E+01   0.1184193154E+01  -0.1433315127E+01  -0.5157157765E+00
   0.4006264416E-03   0.7042794766E-03   0.1488157881E-03   0.4508105126E-05   0.5952631525E-03   0.1803242050E-04   0.3162173119E+01   0.2538627568E+01  -0.1710240206E+01  -0.6481514198E+00
   0.1951128078E-03   0.7391461038E-03   0.1480397362E-03   0.5309881753E-05   0.5921589447E-03   0.2123952701E-04   0.2753727762E+01   0.1351315929E+01  -0.1231513107E+01  -0.1898248046E+00
  -0.1120200489E-02   0.1073741775E-02   0.1437169741E-03   0.9756922955E-05   0.5748678964E-03   0.3902769182E-04   0.1814975723E+01   0.5147864192E+00  -0.6989286428E+00   0.5187439321E-01
  -0.4682918547E-03   0.8571158083E-03   0.1455334151E-03   0.7812346660E-05   0.5821336602E-03   0.3124938664E-04   0.2467409750E+01   0.7972223493E+00  -0.9793896297E+00  -0.8812573247E-01
  -0.3604799634E-03   0.1395605339E-02   0.1470288653E-03   0.7355155861E-05   0.5881154613E-03   0.2942062344E-04   0.2021587915E+01   0.9218184429E+00  -0.8830219074E+00  -0.1535596173E+00
  -0.7944668243E-03   0.9656612327E-03   0.1445810771E-03   0.8831122539E-05   0.5783243085E-03   0.3532449016E-04   0.2230768764E+01   0.4045565384E+00  -0.7905975906E+00   0.6206369081E-01
  -0.4138032056E-03   0.1126071440E-02   0.1463976809E-03   0.7525923925E-05   0.5855907235E-03   0.3010369570E-04   0.2466232864E+01   0.1053134713E+01  -0.1055810273E+01  -0.3227134468E+00
  -0.7398644735E-03   0.1234501709E-02   0.1454680833E-03   0.8521669702E-05   0.5818723332E-03   0.3408667881E-04   0.2346947896E+01   0.7801901982E+00  -0.9381414282E+00  -0.1413085152E+00
   0.6848439018E-03   0.1822065837E-02   0.1498658052E-03   0.5983453443E-05   0.5994632209E-03   0.2393381377E-04   0.1779419236E+01   0.1381358648E+01  -0.9482333651E+00  -0.1747313543E-01
   0.6968199552E-03   0.1323174283E-02   0.1498735268E-03   0.5179888649E-05   0.5994941073E-03   0.2071955459E-04   0.2223776401E+01   0.1685122324E+01  -0.1172669618E+01  -0.2392633611E-01
   0.1141995626E-02   0.1457849987E-02   0.1508982091E-03   0.5713409337E-05   0.6035928364E-03   0.2285363735E-04   0.2054478563E+01   0.1517229917E+01  -0.1071512544E+01   0.1900628083E+00
   0.6908361333E-03   0.1572717013E-02   0.1498705070E-03   0.5601072523E-05   0.5994820279E-03   0.2240429009E-04   0.1804363575E+01   0.1673302005E+01  -0.1043299674E+01  -0.4040814967E-01
   0.9194100301E-03   0.1390078314E-02   0.1503863144E-03   0.5359896845E-05   0.6015452577E-03   0.2143958738E-04   0.2069342779E+01   0.1719043939E+01  -0.1136516015E+01   0.9873323737E-01
   0.9132318545E-03   0.1639475542E-02   0.1503444253E-03   0.5751956395E-05   0.6013777012E-03   0.2300782558E-04   0.1984330509E+01   0.1743506435E+01  -0.1118351083E+01   0.6627967082E-01
   0.1361111773E-02   0.2057369194E-02   0.1512097684E-03   0.6746612768E-05   0.6048390735E-03   0.2698645107E-04   0.1721781293E+01   0.1171576801E+01  -0.8680074284E+00   0.1420901451E+00
   0.1022992876E-02   0.1939134474E-02   0.1505407946E-03   0.6248436803E-05   0.6021631786E-03   0.2499374721E-04   0.1848543574E+01   0.1516156229E+01  -0.1009409941E+01   0.1432090384E+00
   0.1251593947E-02   0.1757741932E-02   0.1510620383E-03   0.6256490390E-05   0.6042481530E-03   0.2502596156E-04   0.1725499361E+01   0.1361524944E+01  -0.9261072913E+00   0.2366131485E+00
   0.1700664459E-02   0.7691037053E-04   0.1571585532E-03   0.7469500025E-05   0.6286342128E-03   0.2987800010E-04   0.2137120904E+01   0.7425282542E+00  -0.8638947475E+00  -0.5747875241E+00
   0.1332142092E-02   0.2343707467E-03   0.1538462339E-03   0.5534693145E-05   0.6153849358E-03   0.2213877258E-04   0.3269248573E+01   0.1224854439E+01  -0.1348230904E+01  -0.2634588238E+00
   0.1363277460E-02  -0.1408063585E-03   0.1576968402E-03   0.6017783705E-05   0.6307873610E-03   0.2407113482E-04   0.2139822829E+01   0.1018149236E+01  -0.9473916195E+00  -0.8111089989E+00
   0.1516779384E-02   0.1560742344E-03   0.1555776155E-03   0.6588832889E-05   0.6223104618E-03   0.2635533156E-04   0.3360205081E+01   0.1635959980E+00  -0.1057140324E+01  -0.7451369339E+00
   0.1378242561E-02   0.4915525538E-04   0.1557757834E-03   0.6058818837E-05   0.6231031338E-03   0.2423527535E-04   0.2338221628E+01   0.5538670451E+00  -0.8676266018E+00  -0.9397469145E+00
   0.1531423066E-02  -0.3168976986E-04   0.1573181238E-03   0.6795286308E-05   0.6292724952E-03   0.2718114523E-04   0.4096221453E+01   0.1684214154E+01  -0.1734130682E+01  -0.9928692783E+00
   0.2774682055E-02   0.2130707749E-03   0.1604341751E-03   0.1092047077E-04   0.6417367003E-03   0.4368188309E-04   0.1752617309E+01   0.4290472376E+00  -0.6544993640E+00  -0.4616468748E+00
   0.2082368347E-02   0.4106338324E-03   0.1567489213E-03   0.8586788686E-05   0.6269956854E-03   0.3434715474E-04   0.2323151853E+01   0.6438540173E+00  -0.8901017612E+00  -0.3380212033E+00
   0.2259983561E-02  -0.1749849373E-03   0.1612543582E-03   0.9612260747E-05   0.6450174329E-03   0.3844904299E-04   0.1715677558E+01   0.5951712282E+00  -0.6932546358E+00  -0.6760246826E+00
   0.2428990711E-02   0.3122198804E-03   0.1586846382E-03   0.9827143480E-05   0.6347385529E-03   0.3930857392E-04   0.2261816124E+01   0.3218034230E+00  -0.7750858641E+00  -0.3772646918E+00
   0.2170499165E-02   0.1181163449E-03   0.1588662829E-03   0.9157904187E-05   0.6354651316E-03   0.3663161675E-04   0.2057001419E+01   0.5658636861E+00  -0.7868595315E+00  -0.6146616813E+00
   0.2516754926E-02   0.1928730055E-04   0.1607286791E-03   0.1031524211E-04   0.6429147165E-03   0.4126096844E-04   0.2110121349E+01   0.5233434421E+00  -0.7900394373E+00  -0.7031776183E+00
   0.5061241185E-02  -0.1705680590E-02   0.1749074730E-03   0.1655237998E-04   0.6996298920E-03   0.6620951992E-04   0.7422494416E+00   0.3078186963E+00  -0.3150204414E+00  -0.4560339207E+00
   0.3946138118E-02  -0.1964258517E-02   0.1751578016E-03   0.1394217462E-04   0.7006312065E-03   0.5576869848E-04   0.5680527510E+00   0.4120483151E+00  -0.2940303199E+00  -0.4857072837E+00
   0.4645007960E-02  -0.2973139962E-02   0.1805178960E-03   0.1523886352E-04   0.7220715840E-03   0.6095545410E-04   0.3765538106E+00   0.3301883568E+00  -0.2120226502E+00  -0.3642001130E+00
   0.4503321424E-02  -0.1834555494E-02   0.1749590148E-03   0.1533008928E-04   0.6998360593E-03   0.6132035714E-04   0.7006330131E+00   0.4194692977E+00  -0.3360306932E+00  -0.5216025013E+00
   0.4296119993E-02  -0.2468639893E-02   0.1779472386E-03   0.1460241137E-04   0.7117889544E-03   0.5840964550E-04   0.4035721777E+00   0.3794854499E+00  -0.2349172883E+00  -0.4719160550E+00
   0.4853004962E-02  -0.2339028388E-02   0.1776887843E-03   0.1597197641E-04   0.7107551373E-03   0.6388790565E-04   0.5479923024E+00   0.3834102322E+00  -0.2794207604E+00  -0.4687049488E+00
   0.1308049467E+00   0.8355466788E-01   0.2391677331E-03   0.6798309539E-04   0.9566709325E-03   0.2719323815E-03   0.4599177366E+00  -0.4475147302E-02  -0.1366327768E+00   0.1238397091E-01
   0.1412150092E+00   0.1003263374E+00   0.2430016375E-03   0.6526728977E-04   0.9720065498E-03   0.2610691591E-03   0.4705336651E+00  -0.2063921733E-02  -0.1405409230E+00   0.8646354177E-02
   0.1211237602E+00   0.1002893468E+00   0.2247526364E-03   0.5786916085E-04   0.8990105456E-03   0.2314766434E-03   0.4576266680E+00  -0.2648034865E-02  -0.1364935899E+00   0.1352915577E-01
   0.1360094920E+00   0.9194123860E-01   0.2409889977E-03   0.6677233928E-04   0.9639559907E-03   0.2670893571E-03   0.4812422679E+00  -0.2573724363E-02  -0.1436005631E+00   0.1001388017E-01
   0.1311689855E+00   0.1003090288E+00   0.2337981045E-03   0.6180556922E-04   0.9351924179E-03   0.2472222769E-03   0.5246743972E+00   0.3632266989E-02  -0.1584919993E+00  -0.5819842870E-02
   0.1259657759E+00   0.9192241134E-01   0.2322439821E-03   0.6300688791E-04   0.9289759286E-03   0.2520275517E-03   0.4659373707E+00  -0.2308639072E-02  -0.1390886195E+00   0.5899906546E-02
   0.1398838276E+00   0.6625900493E-01   0.2513729293E-03   0.7743700599E-04   0.1005491717E-02   0.3097480240E-03   0.4298436336E+00  -0.8814830235E-02  -0.1263086410E+00   0.1429645645E-01
   0.1199062211E+00   0.6777264785E-01   0.2352410211E-03   0.6915155079E-04   0.9409640845E-03   0.2766062032E-03   0.4294499213E+00  -0.1104761409E-01  -0.1255206922E+00   0.2262499867E-01
   0.1353453614E+00   0.7490725270E-01   0.2454652716E-03   0.7279405926E-04   0.9818610862E-03   0.2911762370E-03   0.4404120221E+00  -0.6925711208E-02  -0.1300458933E+00   0.1431960055E-01
   0.1253552531E+00   0.7566417674E-01   0.2371390121E-03   0.6867034820E-04   0.9485560484E-03   0.2746813928E-03   0.4487384952E+00  -0.7194039616E-02  -0.1324633367E+00   0.1896467063E-01
   0.1298950694E+00   0.6701713674E-01   0.2433166778E-03   0.7355634806E-04   0.9732667114E-03   0.2942253922E-03   0.4288303478E+00  -0.8195344174E-02  -0.1261905011E+00   0.2264467703E-01
   0.1831154666E+00   0.7350950315E-01   0.2848713196E-03   0.8431300945E-04   0.1139485279E-02   0.3372520378E-03   0.4519973810E+00  -0.3874800532E-02  -0.1344367741E+00   0.3236757095E-02
   0.1833370721E+00   0.5163078261E-01   0.2867836237E-03   0.9180954193E-04   0.1147134495E-02   0.3672381677E-03   0.4024484836E+00  -0.7818122476E-02  -0.1183891083E+00   0.4101799378E-02
   0.2015000030E+00   0.6044890865E-01   0.3000000000E-03   0.8978199100E-04   0.1200000000E-02   0.3591279640E-03   0.4213473605E+00  -0.5503101198E-02  -0.1247532778E+00   0.3123167169E-02
   0.1832263588E+00   0.6257059285E-01   0.2858453684E-03   0.8815127091E-04   0.1143381474E-02   0.3526050836E-03   0.4231408068E+00  -0.5282236818E-02  -0.1253575710E+00   0.3118611731E-02
   0.1924176931E+00   0.5604101925E-01   0.2932214147E-03   0.9103011088E-04   0.1172885659E-02   0.3641204435E-03   0.4053002079E+00  -0.6958973830E-02  -0.1195023702E+00   0.2764801477E-02
   0.1923090593E+00   0.6698052133E-01   0.2927020569E-03   0.8731096666E-04   0.1170808228E-02   0.3492438666E-03   0.4438449861E+00  -0.3194420159E-02  -0.1321951698E+00   0.1817861682E-02
   0.2980416308E-02  -0.5250265926E-03   0.1654563276E-03   0.1179341709E-04   0.6618253103E-03   0.4717366836E-04   0.1224070649E+01   0.4438102116E+00  -0.5003642581E+00  -0.5951618717E+00
   0.2382173769E-02  -0.7564212713E-03   0.1660148818E-03   0.9931222341E-05   0.6640595272E-03   0.3972488936E-04   0.1045862703E+01   0.6523292119E+00  -0.5094575743E+00  -0.7493906716E+00
   0.2911001259E-02  -0.1440528446E-02   0.1713549817E-03   0.1125149078E-04   0.6854199268E-03   0.4500596312E-04   0.5763384492E+00   0.4635361881E+00  -0.3119623912E+00  -0.4791026456E+00
   0.2680891197E-02  -0.6403881995E-03   0.1656548355E-03   0.1092947210E-04   0.6626193419E-03   0.4371788842E-04   0.1311071834E+01   0.6534675990E+00  -0.5893618299E+00  -0.8152601324E+00
   0.2647310327E-02  -0.1098376299E-02   0.1688294933E-03   0.1061105622E-04   0.6753179733E-03   0.4244422487E-04   0.6202224041E+00   0.5374604618E+00  -0.3473048597E+00  -0.6743717771E+00
   0.2945671136E-02  -0.9823414042E-03   0.1683981252E-03   0.1160967116E-04   0.6735925008E-03   0.4643868463E-04   0.9488984756E+00   0.6054308440E+00  -0.4662987959E+00  -0.7061820425E+00
   0.3782205354E-02  -0.4149943857E-02   0.1855544887E-03   0.1223352055E-04   0.7422179549E-03   0.4893408222E-04   0.1615715114E+00   0.2484642418E+00  -0.1230107260E+00  -0.2223795053E+00
   0.2208394588E-02  -0.3541318064E-02   0.1828431176E-03   0.6996269194E-05   0.7313724706E-03   0.2798507678E-04   0.8017731655E-01   0.1632139504E+00  -0.7301738007E-01  -0.1478076014E+00
   0.2558816140E-02  -0.5262367627E-02   0.1899879720E-03   0.7779576541E-05   0.7599518881E-03   0.3111830616E-04   0.4553681482E-01   0.7007518440E-01  -0.3468359977E-01  -0.9119543956E-01
   0.2995375828E-02  -0.3844547670E-02   0.1842139856E-03   0.9831575967E-05   0.7368559422E-03   0.3932630387E-04   0.1113972750E+00   0.3025778316E+00  -0.1241925320E+00  -0.1760527862E+00
   0.2384526829E-02  -0.4401901766E-02   0.1865998257E-03   0.7376162860E-05   0.7463993030E-03   0.2950465144E-04  -0.3143912942E-01   0.1163229969E+00  -0.2546516025E-01  -0.4586292310E-01
   0.3170829946E-02  -0.4706062638E-02   0.1878350473E-03   0.1002517040E-04   0.7513401891E-03   0.4010068161E-04   0.7735035689E-01   0.2262255028E+00  -0.9107275790E-01  -0.1509142380E+00
   0.2069145577E-02  -0.1155516613E-02   0.1688193334E-03   0.8313145371E-05   0.6752773336E-03   0.3325258149E-04   0.4628701527E+00   0.5995397661E+00  -0.3187229756E+00  -0.4959679673E+00
   0.1431123634E-02  -0.1055990063E-02   0.1678828711E-03   0.4958627488E-05   0.6715314842E-03   0.1983450995E-04   0.3609342265E+00   0.3699772780E+00  -0.2192734513E+00  -0.2912165689E+00
   0.1927437469E-02  -0.2033520282E-02   0.1748776718E-03   0.6677297519E-05   0.6995106871E-03   0.2670919008E-04   0.1955801641E+00   0.2637022321E+00  -0.1377847189E+00  -0.2510404107E+00
   0.1749942963E-02  -0.1104813744E-02   0.1683127737E-03   0.6823805234E-05   0.6732510948E-03   0.2729522094E-04   0.3577967389E+00   0.8630821136E+00  -0.3662636558E+00  -0.5245467566E+00
   0.1680730006E-02  -0.1544492938E-02   0.1716701621E-03   0.5870422353E-05   0.6866806483E-03   0.2348168941E-04   0.2575486378E-01   0.6980287721E+00  -0.2171350908E+00  -0.2441759698E+00
   0.1999163292E-02  -0.1594554573E-02   0.1720228683E-03   0.7487985361E-05   0.6880914733E-03   0.2995194144E-04   0.1415189413E+00   0.4997644442E+00  -0.1923850156E+00  -0.3650126946E+00
   0.1753185851E-02  -0.5171931827E-03   0.1629644255E-03   0.7641359466E-05   0.6518577020E-03   0.3056543786E-04   0.1099353517E+01   0.7221488687E+00  -0.5464507157E+00  -0.7075817127E+00
   0.2068025737E-02  -0.6365122042E-03   0.1645588275E-03   0.8845301362E-05   0.6582353100E-03   0.3538120545E-04   0.1006056916E+01   0.8529246319E+00  -0.5576944645E+00  -0.9942898574E+00
   0.1912268245E-02  -0.8362769164E-03   0.1661123969E-03   0.7992842923E-05   0.6644495878E-03   0.3197137169E-04   0.8494932287E+00   0.8224720448E+00  -0.5015895820E+00  -0.9448316616E+00
   0.2225436356E-02  -0.9556329972E-03   0.1673724432E-03   0.9189384553E-05   0.6694897728E-03   0.3675753821E-04   0.6467409371E+00   0.7142475674E+00  -0.4082965514E+00  -0.5975991347E+00
   0.8157545642E-03  -0.5996603290E-03   0.1631509128E-03   0.0000000000E+00   0.6526036514E-03   0.0000000000E+00  -0.1636213373E+00   0.4689303128E+00  -0.9159269264E-01  -0.3738093519E+00
   0.8594563968E-03  -0.1587756586E-02   0.1718912794E-03   0.5599988212E-06   0.6875651175E-03   0.2239995285E-05   0.2250041521E+00   0.5165388614E+00  -0.2224629040E+00  -0.2064011593E+00
   0.1124531764E-02  -0.8253067748E-03   0.1657354250E-03   0.2982998045E-05   0.6629417001E-03   0.1193199218E-04   0.1047445664E+01   0.1262083114E+01  -0.6928586332E+00  -0.2239879574E+00
   0.8405239770E-03  -0.1093783348E-02   0.1681047954E-03   0.2650223347E-06   0.6724191816E-03   0.1060089339E-05  -0.4880236589E+00  -0.1400400881E+01   0.5665273620E+00   0.3511929216E+00
   0.1146150212E-02  -0.1322412891E-02   0.1700591146E-03   0.2651399864E-05   0.6802364584E-03   0.1060559945E-04  -0.1579127187E+00   0.3910193178E+00  -0.6993197976E-01  -0.1990412049E+00
  -0.1400066632E+00  -0.9944907431E-01  -0.1332440057E-05   0.1101853388E-03  -0.5329760230E-05   0.4407413554E-03   0.1769273485E-01  -0.8805550401E-03  -0.5043653942E-02   0.5909750846E-02
  -0.1200116264E+00  -0.9948147946E-01  -0.2325883887E-05   0.1037043084E-03  -0.9303535550E-05   0.4148172336E-03   0.7122390397E-02  -0.5134615026E-03  -0.1982678668E-02   0.7552801076E-02
  -0.1348490471E+00  -0.9106668190E-01   0.1041985390E-05   0.1087946596E-03   0.4167941560E-05   0.4351786386E-03   0.6192426398E-02  -0.1087678914E-02  -0.1531424245E-02   0.5895316755E-02
  -0.1300088861E+00  -0.9946399089E-01  -0.1778216142E-05   0.1072020217E-03  -0.7112864568E-05   0.4288080867E-03  -0.4992633055E-01   0.1425760852E-02   0.1455017091E-01  -0.3835892005E-02
  -0.1248493313E+00  -0.9108273491E-01   0.9841352471E-06   0.1055840573E-03   0.3936540988E-05   0.4223362293E-03  -0.1872177628E-02  -0.8450555608E-03   0.8151699568E-03   0.4763730722E-02
  -0.1053845927E-01  -0.2430969683E-01   0.6602714577E-04   0.2508979449E-04   0.2641085831E-03   0.1003591779E-03   0.3106533200E-01   0.1738510537E-01  -0.1453513121E-01   0.3785404814E-01
  -0.4647015086E-02  -0.2218103937E-01   0.6973986480E-04   0.1601470666E-04   0.2789594592E-03   0.6405882663E-04   0.1080868051E-01  -0.4884643283E-01   0.1141132570E-01   0.1702539895E-01
  -0.8729167807E-02  -0.1875847395E-01   0.7565812067E-04   0.2271645069E-04   0.3026324827E-03   0.9086580274E-04   0.4167699970E-01   0.3482103571E-01  -0.2294941062E-01   0.5748086632E-01
  -0.7592950141E-02  -0.2324438707E-01   0.6784086385E-04   0.2074864530E-04   0.2713634554E-03   0.8299458119E-04   0.1620513798E-01  -0.8115157699E-02  -0.2426994084E-02   0.2091058172E-01
  -0.6688569340E-02  -0.2046995825E-01   0.7260336595E-04   0.1932524955E-04   0.2904134638E-03   0.7730099821E-04   0.2005447215E-01   0.1025113253E-01  -0.9091681404E-02   0.3226316120E-01
  -0.9634740990E-02  -0.2153401711E-01   0.7065713992E-04   0.2391657766E-04   0.2826285597E-03   0.9566631065E-04   0.8071382696E-02   0.3666914015E-01  -0.1342215685E-01   0.3530804106E-01
   0.1468519573E-02  -0.7991524333E-01   0.2937039146E-03   0.1695097394E-04   0.1174815659E-02   0.6780389574E-04  -0.9112613768E-02  -0.4773951723E-02   0.4165969647E-02   0.1170600385E-01
   0.1558835306E-02  -0.9991423581E-01   0.3117670612E-03   0.1715303866E-04   0.1247068245E-02   0.6861215463E-04  -0.7553210725E-02  -0.9095781703E-02   0.4994697728E-02   0.3179837906E-02
   0.1513298684E-02  -0.8991442339E-01   0.3026597367E-03   0.1711454262E-04   0.1210638947E-02   0.6845817049E-04   0.1370801675E-01  -0.1032046686E-01  -0.1016264966E-02   0.2957086282E-02
   0.1155863010E-01  -0.9986849273E-01   0.3117260648E-03   0.2630165424E-04   0.1246904259E-02   0.1052066169E-03  -0.1392091740E-01   0.1282270018E-01   0.3294651651E-03   0.4312119586E-02
   0.1151333092E-01  -0.8986847540E-01   0.3026662290E-03   0.2630563936E-04   0.1210664916E-02   0.1052225574E-03  -0.7711653107E-02  -0.1119807336E-01   0.5672917940E-02  -0.1531341373E-02
   0.3470059231E-01  -0.6651329257E-01   0.2821962013E-03   0.4861054652E-04   0.1128784805E-02   0.1944421861E-03   0.7673757540E-02   0.7980699744E-02  -0.4696337185E-02   0.8014415098E-02
   0.2493923967E-01  -0.5705874532E-01   0.2734610138E-03   0.3933287523E-04   0.1093844055E-02   0.1573315009E-03   0.9232271702E-02   0.5729662810E-02  -0.4488580354E-02   0.7946970186E-02
   0.2982036355E-01  -0.6178553853E-01   0.2779181293E-03   0.4406779426E-04   0.1111672517E-02   0.1762711771E-03   0.1179590406E-01   0.2114229752E-01  -0.9881460474E-02   0.9684220929E-02
   0.2185018154E-01  -0.6462322956E-01   0.2804372078E-03   0.3616950726E-04   0.1121748831E-02   0.1446780290E-03  -0.1290835402E-04  -0.3232218401E-02   0.9735380265E-03   0.1635911788E-01
   0.2673022399E-01  -0.6934987575E-01   0.2846776377E-03   0.4093234941E-04   0.1138710551E-02   0.1637293976E-03  -0.1119226376E-02   0.2880819076E-02  -0.5284778099E-03   0.1761668923E-01
  -0.3769449100E-02  -0.1714219766E-01   0.7892658003E-04   0.1413698722E-04   0.3157063201E-03   0.5654794888E-04   0.1461637761E-01  -0.4035685110E-01   0.7722142048E-02   0.2721847312E-01
   0.3747787124E-03  -0.1947316006E-01   0.7495574249E-04   0.6804547317E-05   0.2998229699E-03   0.2721818927E-04   0.3396309560E-02  -0.6496535074E-01   0.1847071236E-01   0.7667003875E-02
   0.4182124424E-03  -0.1502854633E-01   0.8364248849E-04   0.5380673099E-05   0.3345699539E-03   0.2152269240E-04   0.4638157400E-02  -0.5629097776E-01   0.1549584611E-01   0.1387273884E-01
  -0.1697799888E-02  -0.1830822567E-01   0.7684822247E-04   0.1036158636E-04   0.3073928899E-03   0.4144634546E-04   0.4799409417E-02  -0.8381143008E-01   0.2370360620E-01   0.8896231342E-02
   0.3957099882E-03  -0.1725084520E-01   0.7914199763E-04   0.6094200375E-05   0.3165679905E-03   0.2437680150E-04  -0.7231148454E-02  -0.2520894995E+00   0.7779619439E-01  -0.1156139856E-01
  -0.1676073368E-02  -0.1608445769E-01   0.8119352648E-04   0.9941502301E-05   0.3247741059E-03   0.3976600920E-04   0.6605331522E-02  -0.8400077091E-01   0.2321863182E-01   0.6376295523E-02
   0.1252953176E-01  -0.5588013098E-01   0.2721081129E-03   0.2645220449E-04   0.1088432452E-02   0.1058088180E-03   0.1922263211E-02  -0.2611157840E-01   0.7256794557E-02   0.9421534780E-02
   0.1332309118E-02  -0.5077240205E-01   0.2664618236E-03   0.1423216989E-04   0.1065847294E-02   0.5692867957E-04   0.9491606761E-03  -0.4099326108E-01   0.1201323012E-01   0.1057929819E-01
   0.1395716338E-02  -0.6378363595E-01   0.2791432677E-03   0.1592681083E-04   0.1116573071E-02   0.6370724333E-04   0.1054263737E-03  -0.1654020528E-01   0.4930433671E-02   0.1728429436E-01