 VARIABLES = X,Y,Z,DU1,DU2,DU3,U1,U2,U3,S11,S22,S33,S12,S13,S23,OMEGA,EP,E11
 ZONE, T="0.1000D-01" F=FEPOINT, I=   12 J=    2 ET=BRICK
   0.0000000000E+00  -0.1917478202E-05  -0.1917478202E-05   0.0000000000E+00  -0.7485415189E-08  -0.7485415189E-08   0.0000000000E+00  -0.1909992787E-05  -0.1909992787E-05   0.8458376864E+01  -0.1391178844E+01  -0.1391178844E+01   0.5625610967E+00   0.5625610967E+00  -0.1181785193E-10   0.0000000000E+00   0.0000000000E+00   0.1339551912E-03
   0.1000148620E+01   0.6237567771E-04   0.6237567771E-04   0.4009163537E-06   0.1478510870E-06   0.1478510870E-06   0.1482189681E-03   0.6222782663E-04   0.6222782663E-04   0.3906316361E+02   0.6236616206E+01   0.6236616206E+01   0.5624294193E+00   0.5624294193E+00  -0.4027999080E-10   0.0000000000E+00   0.0000000000E+00   0.4993138161E-03
   0.1000148620E+01   0.9999376243E+00   0.6237567771E-04   0.4009163536E-06  -0.1478510870E-06   0.1478510870E-06   0.1482189681E-03  -0.6222782662E-04   0.6222782662E-04   0.3906316360E+02   0.6236616206E+01   0.6236616206E+01  -0.5624294194E+00   0.5624294192E+00  -0.1042716052E-14   0.0000000000E+00   0.0000000000E+00   0.4993138161E-03
   0.0000000000E+00   0.1000001917E+01  -0.1917478202E-05   0.0000000000E+00   0.7485415188E-08  -0.7485415188E-08   0.0000000000E+00   0.1909992787E-05  -0.1909992787E-05   0.8458376863E+01  -0.1391178844E+01  -0.1391178844E+01  -0.5625610968E+00   0.5625610967E+00  -0.6254086367E-15   0.0000000000E+00   0.0000000000E+00   0.1339551912E-03
   0.0000000000E+00  -0.1917478202E-05   0.1000001917E+01   0.0000000000E+00  -0.7485415188E-08   0.7485415188E-08   0.0000000000E+00  -0.1909992787E-05   0.1909992787E-05   0.8458376863E+01  -0.1391178844E+01  -0.1391178844E+01   0.5625610967E+00  -0.5625610968E+00  -0.7357097886E-15   0.0000000000E+00   0.0000000000E+00   0.1339551912E-03
   0.1000148620E+01   0.6237567771E-04   0.9999376243E+00   0.4009163536E-06   0.1478510870E-06  -0.1478510870E-06   0.1482189681E-03   0.6222782662E-04  -0.6222782662E-04   0.3906316360E+02   0.6236616206E+01   0.6236616206E+01   0.5624294192E+00  -0.5624294194E+00  -0.1356622026E-14   0.0000000000E+00   0.0000000000E+00   0.4993138161E-03
   0.1000148620E+01   0.9999376243E+00   0.9999376243E+00   0.4009163536E-06  -0.1478510870E-06  -0.1478510870E-06   0.1482189681E-03  -0.6222782662E-04  -0.6222782662E-04   0.3906316360E+02   0.6236616205E+01   0.6236616205E+01  -0.5624294193E+00  -0.5624294193E+00   0.4027759146E-10   0.0000000000E+00   0.0000000000E+00   0.4993138161E-03
   0.0000000000E+00   0.1000001917E+01   0.1000001917E+01   0.0000000000E+00   0.7485415187E-08   0.7485415187E-08   0.0000000000E+00   0.1909992787E-05   0.1909992787E-05   0.8458376863E+01  -0.1391178844E+01  -0.1391178844E+01  -0.5625610967E+00  -0.5625610967E+00   0.1181649081E-10   0.0000000000E+00   0.0000000000E+00   0.1339551912E-03
   0.2001000000E+01   0.1266673724E-03   0.1266673724E-03   0.1000000000E-05   0.3031803505E-06   0.3031803505E-06   0.9990000000E-03   0.1263641921E-03   0.1263641921E-03   0.6967270925E+02   0.1386601384E+02   0.1386601384E+02   0.5622977272E+00   0.5622977272E+00  -0.6874819689E-10   0.0000000000E+00   0.0000000000E+00   0.8646754521E-03
   0.2001000000E+01   0.9998733326E+00   0.1266673724E-03   0.1000000000E-05  -0.3031803505E-06   0.3031803505E-06   0.9990000000E-03  -0.1263641921E-03   0.1263641921E-03   0.6967270925E+02   0.1386601384E+02   0.1386601384E+02  -0.5622977272E+00   0.5622977272E+00   0.3858388843E-15   0.0000000000E+00   0.0000000000E+00   0.8646754521E-03
   0.2001000000E+01   0.1266673724E-03   0.9998733326E+00   0.1000000000E-05   0.3031803505E-06  -0.3031803505E-06   0.9990000000E-03   0.1263641921E-03  -0.1263641921E-03   0.6967270925E+02   0.1386601384E+02   0.1386601384E+02   0.5622977272E+00  -0.5622977272E+00  -0.2301547845E-16   0.0000000000E+00   0.0000000000E+00   0.8646754521E-03
   0.2001000000E+01   0.9998733326E+00   0.9998733326E+00   0.1000000000E-05  -0.3031803505E-06  -0.3031803505E-06   0.9990000000E-03  -0.1263641921E-03  -0.1263641921E-03   0.6967270925E+02   0.1386601384E+02   0.1386601384E+02  -0.5622977272E+00  -0.5622977272E+00   0.6874855971E-10   0.0000000000E+00   0.0000000000E+00   0.8646754521E-03
     1     2     3     4     5     6     7     8
     2     9    10     3     6    11    12     7
 VARIABLES = X,Y,Z,DU1,DU2,DU3,U1,U2,U3,S11,S22,S33,S12,S13,S23,OMEGA,EP,E11
 ZONE, T="0.2000D-01" F=FEPOINT, I=   12 J=    2 ET=BRICK
   0.0000000000E+00   0.4485111491E-05   0.4485111491E-05   0.0000000000E+00   0.6260445896E-07   0.6260445896E-07   0.0000000000E+00   0.4422507032E-05   0.4422507032E-05   0.5806344971E+02   0.9823323510E+01   0.9823323510E+01   0.1685599084E+01   0.1685599084E+01  -0.1794355429E-10   0.0000000000E+00   0.0000000000E+00   0.7370491079E-03
   0.1000780845E+01   0.1967456915E-03   0.1967456915E-03   0.7668189510E-06   0.6079366157E-07   0.6079366157E-07   0.7800785607E-03   0.1966848979E-03   0.1966848979E-03   0.6341043117E+02  -0.9879184762E+01  -0.9879184762E+01   0.1685794477E+01   0.1685794477E+01  -0.9424624301E-10   0.0000000000E+00   0.0000000000E+00   0.9989789340E-03
   0.1000780845E+01   0.9998032543E+00   0.1967456915E-03   0.7668189509E-06  -0.6079366157E-07   0.6079366158E-07   0.7800785606E-03  -0.1966848979E-03   0.1966848979E-03   0.6341043117E+02  -0.9879184762E+01  -0.9879184762E+01  -0.1685794478E+01   0.1685794477E+01   0.1141928669E-14   0.0000000000E+00   0.0000000000E+00   0.9989789340E-03
   0.0000000000E+00   0.9999955149E+00   0.4485111492E-05   0.0000000000E+00  -0.6260445896E-07   0.6260445896E-07   0.0000000000E+00  -0.4422507034E-05   0.4422507033E-05   0.5806344971E+02   0.9823323510E+01   0.9823323510E+01  -0.1685599084E+01   0.1685599084E+01   0.1812663503E-14   0.0000000000E+00   0.0000000000E+00   0.7370491079E-03
   0.0000000000E+00   0.4485111492E-05   0.9999955149E+00   0.0000000000E+00   0.6260445896E-07  -0.6260445896E-07   0.0000000000E+00   0.4422507033E-05  -0.4422507034E-05   0.5806344971E+02   0.9823323510E+01   0.9823323510E+01   0.1685599084E+01  -0.1685599084E+01   0.1403253265E-14   0.0000000000E+00   0.0000000000E+00   0.7370491079E-03
   0.1000780845E+01   0.1967456915E-03   0.9998032543E+00   0.7668189509E-06   0.6079366158E-07  -0.6079366157E-07   0.7800785606E-03   0.1966848979E-03  -0.1966848979E-03   0.6341043117E+02  -0.9879184762E+01  -0.9879184762E+01   0.1685794477E+01  -0.1685794478E+01  -0.6435958016E-15   0.0000000000E+00   0.0000000000E+00   0.9989789340E-03
   0.1000780845E+01   0.9998032543E+00   0.9998032543E+00   0.7668189509E-06  -0.6079366157E-07  -0.6079366157E-07   0.7800785606E-03  -0.1966848979E-03  -0.1966848979E-03   0.6341043117E+02  -0.9879184762E+01  -0.9879184762E+01  -0.1685794478E+01  -0.1685794478E+01   0.9424674134E-10   0.0000000000E+00   0.0000000000E+00   0.9989789339E-03
   0.0000000000E+00   0.9999955149E+00   0.9999955149E+00   0.0000000000E+00  -0.6260445896E-07  -0.6260445896E-07   0.0000000000E+00  -0.4422507035E-05  -0.4422507035E-05   0.5806344971E+02   0.9823323510E+01   0.9823323510E+01  -0.1685599084E+01  -0.1685599084E+01   0.1794677020E-10   0.0000000000E+00   0.0000000000E+00   0.7370491078E-03
   0.2002000000E+01   0.3889871378E-03   0.3889871378E-03   0.1000000000E-05   0.5896565294E-07   0.5896565294E-07   0.1999000000E-02   0.3889281721E-03   0.3889281721E-03   0.6877327014E+02  -0.2958292937E+02  -0.2958292937E+02   0.1685989997E+01   0.1685989997E+01  -0.1706317037E-09   0.0000000000E+00   0.0000000000E+00   0.1260933141E-02
   0.2002000000E+01   0.9996110129E+00   0.3889871377E-03   0.1000000000E-05  -0.5896565293E-07   0.5896565294E-07   0.1999000000E-02  -0.3889281721E-03   0.3889281721E-03   0.6877327014E+02  -0.2958292937E+02  -0.2958292937E+02  -0.1685989997E+01   0.1685989997E+01  -0.1305485845E-14   0.0000000000E+00   0.0000000000E+00   0.1260933141E-02
   0.2002000000E+01   0.3889871377E-03   0.9996110129E+00   0.1000000000E-05   0.5896565294E-07  -0.5896565293E-07   0.1999000000E-02   0.3889281721E-03  -0.3889281721E-03   0.6877327014E+02  -0.2958292937E+02  -0.2958292937E+02   0.1685989997E+01  -0.1685989997E+01  -0.4872659129E-14   0.0000000000E+00   0.0000000000E+00   0.1260933141E-02
   0.2002000000E+01   0.9996110129E+00   0.9996110129E+00   0.1000000000E-05  -0.5896565294E-07  -0.5896565294E-07   0.1999000000E-02  -0.3889281721E-03  -0.3889281721E-03   0.6877327013E+02  -0.2958292936E+02  -0.2958292936E+02  -0.1685989997E+01  -0.1685989997E+01   0.1706255255E-09   0.0000000000E+00   0.0000000000E+00   0.1260933141E-02
     1     2     3     4     5     6     7     8
     2     9    10     3     6    11    12     7
 VARIABLES = X,Y,Z,DU1,DU2,DU3,U1,U2,U3,S11,S22,S33,S12,S13,S23,OMEGA,EP,E11
 ZONE, T="0.3000D-01" F=FEPOINT, I=   12 J=    2 ET=BRICK
   0.0000000000E+00   0.2230348271E-03   0.2230348271E-03   0.0000000000E+00   0.3717023475E-06   0.3717023475E-06   0.0000000000E+00   0.2226631247E-03   0.2226631247E-03   0.1131333059E+03   0.9752089044E+01   0.9752089044E+01  -0.5151319230E-01  -0.5151319230E-01  -0.3343668676E-10   0.0000000000E+00   0.0000000000E+00   0.1524528876E-02
   0.1001525059E+01   0.2166990680E-03   0.2166990680E-03   0.7071870281E-06   0.5146833454E-07   0.5146833454E-07   0.1524352140E-02   0.2166475996E-03   0.2166475996E-03   0.1110901722E+03   0.9451591414E+01   0.9451591414E+01  -0.5165019891E-01  -0.5165019891E-01  -0.5576833710E-11   0.0000000000E+00   0.0000000000E+00   0.1498380040E-02
   0.1001525059E+01   0.9997833009E+00   0.2166990680E-03   0.7071870281E-06  -0.5146833454E-07   0.5146833455E-07   0.1524352140E-02  -0.2166475996E-03   0.2166475996E-03   0.1110901722E+03   0.9451591414E+01   0.9451591414E+01   0.5165019810E-01  -0.5165019890E-01   0.7101801886E-14   0.0000000000E+00   0.0000000000E+00   0.1498380040E-02
   0.0000000000E+00   0.9997769652E+00   0.2230348271E-03   0.0000000000E+00  -0.3717023475E-06   0.3717023475E-06   0.0000000000E+00  -0.2226631247E-03   0.2226631247E-03   0.1131333059E+03   0.9752089044E+01   0.9752089044E+01   0.5151319205E-01  -0.5151319229E-01   0.5402040308E-14   0.0000000000E+00   0.0000000000E+00   0.1524528876E-02
   0.0000000000E+00   0.2230348271E-03   0.9997769652E+00   0.0000000000E+00   0.3717023475E-06  -0.3717023475E-06   0.0000000000E+00   0.2226631247E-03  -0.2226631247E-03   0.1131333059E+03   0.9752089044E+01   0.9752089044E+01  -0.5151319229E-01   0.5151319205E-01   0.1497863711E-14   0.0000000000E+00   0.0000000000E+00   0.1524528876E-02
   0.1001525059E+01   0.2166990680E-03   0.9997833009E+00   0.7071870281E-06   0.5146833455E-07  -0.5146833454E-07   0.1524352140E-02   0.2166475996E-03  -0.2166475996E-03   0.1110901722E+03   0.9451591414E+01   0.9451591414E+01  -0.5165019890E-01   0.5165019810E-01   0.1242055681E-14   0.0000000000E+00   0.0000000000E+00   0.1498380040E-02
   0.1001525059E+01   0.9997833009E+00   0.9997833009E+00   0.7071870281E-06  -0.5146833455E-07  -0.5146833455E-07   0.1524352140E-02  -0.2166475996E-03  -0.2166475996E-03   0.1110901722E+03   0.9451591414E+01   0.9451591414E+01   0.5165019809E-01   0.5165019809E-01   0.5585177567E-11   0.0000000000E+00   0.0000000000E+00   0.1498380040E-02
   0.0000000000E+00   0.9997769652E+00   0.9997769652E+00   0.0000000000E+00  -0.3717023475E-06  -0.3717023475E-06   0.0000000000E+00  -0.2226631247E-03  -0.2226631247E-03   0.1131333059E+03   0.9752089043E+01   0.9752089043E+01   0.5151319204E-01   0.5151319204E-01   0.3344358666E-10   0.0000000000E+00   0.0000000000E+00   0.1524528876E-02
   0.2003000000E+01   0.2103320364E-03   0.2103320364E-03   0.1000000000E-05  -0.2687901342E-06  -0.2687901342E-06   0.2999000000E-02   0.2106008265E-03   0.2106008265E-03   0.1090625625E+03   0.9157117564E+01   0.9157117564E+01  -0.5178720167E-01  -0.5178720167E-01   0.2232377393E-10   0.0000000000E+00   0.0000000000E+00   0.1472217343E-02
   0.2003000000E+01   0.9997896680E+00   0.2103320364E-03   0.1000000000E-05   0.2687901342E-06  -0.2687901342E-06   0.2999000000E-02  -0.2106008265E-03   0.2106008265E-03   0.1090625625E+03   0.9157117564E+01   0.9157117564E+01   0.5178720142E-01  -0.5178720166E-01   0.1047842610E-14   0.0000000000E+00   0.0000000000E+00   0.1472217343E-02
   0.2003000000E+01   0.2103320364E-03   0.9997896680E+00   0.1000000000E-05  -0.2687901342E-06   0.2687901342E-06   0.2999000000E-02   0.2106008265E-03  -0.2106008265E-03   0.1090625625E+03   0.9157117564E+01   0.9157117564E+01  -0.5178720166E-01   0.5178720142E-01  -0.1019723642E-13   0.0000000000E+00   0.0000000000E+00   0.1472217343E-02
   0.2003000000E+01   0.9997896680E+00   0.9997896680E+00   0.1000000000E-05   0.2687901342E-06   0.2687901342E-06   0.2999000000E-02  -0.2106008265E-03  -0.2106008265E-03   0.1090625625E+03   0.9157117563E+01   0.9157117563E+01   0.5178720141E-01   0.5178720141E-01  -0.2233292333E-10   0.0000000000E+00   0.0000000000E+00   0.1472217343E-02
     1     2     3     4     5     6     7     8
     2     9    10     3     6    11    12     7
 VARIABLES = X,Y,Z,DU1,DU2,DU3,U1,U2,U3,S11,S22,S33,S12,S13,S23,OMEGA,EP,E11
 ZONE, T="0.4000D-01" F=FEPOINT, I=   12 J=    2 ET=BRICK
   0.0000000000E+00   0.5512448345E-03   0.5512448345E-03   0.0000000000E+00   0.1491026314E-06   0.1491026314E-06   0.0000000000E+00   0.5510957319E-03   0.5510957319E-03   0.1423932030E+03  -0.2604935705E+02  -0.2604935705E+02  -0.1794052839E+01  -0.1794052839E+01  -0.5743545807E-10   0.0000000000E+00   0.0000000000E+00   0.2279462024E-02
   0.1002237087E+01   0.3463361790E-03   0.3463361790E-03   0.7142790290E-06   0.1528077744E-06   0.1528077744E-06   0.2236372658E-02   0.3461833712E-03   0.3461833712E-03   0.1363748798E+03  -0.5179506940E+01  -0.5179506940E+01  -0.1794019606E+01  -0.1794019606E+01   0.1974563874E-10   0.0000000000E+00   0.0000000000E+00   0.1997482811E-02
   0.1002237087E+01   0.9996536638E+00   0.3463361790E-03   0.7142790291E-06  -0.1528077744E-06   0.1528077744E-06   0.2236372658E-02  -0.3461833712E-03   0.3461833712E-03   0.1363748798E+03  -0.5179506940E+01  -0.5179506940E+01   0.1794019606E+01  -0.1794019606E+01   0.1371282208E-13   0.0000000000E+00   0.0000000000E+00   0.1997482811E-02
   0.0000000000E+00   0.9994487552E+00   0.5512448345E-03   0.0000000000E+00  -0.1491026315E-06   0.1491026315E-06   0.0000000000E+00  -0.5510957319E-03   0.5510957319E-03   0.1423932030E+03  -0.2604935705E+02  -0.2604935705E+02   0.1794052839E+01  -0.1794052839E+01   0.9822430888E-14   0.0000000000E+00   0.0000000000E+00   0.2279462024E-02
   0.0000000000E+00   0.5512448345E-03   0.9994487552E+00   0.0000000000E+00   0.1491026315E-06  -0.1491026315E-06   0.0000000000E+00   0.5510957319E-03  -0.5510957319E-03   0.1423932030E+03  -0.2604935705E+02  -0.2604935705E+02  -0.1794052839E+01   0.1794052839E+01   0.1676615911E-14   0.0000000000E+00   0.0000000000E+00   0.2279462024E-02
   0.1002237087E+01   0.3463361790E-03   0.9996536638E+00   0.7142790291E-06   0.1528077744E-06  -0.1528077744E-06   0.2236372658E-02   0.3461833712E-03  -0.3461833712E-03   0.1363748798E+03  -0.5179506940E+01  -0.5179506940E+01  -0.1794019606E+01   0.1794019606E+01   0.2788982846E-14   0.0000000000E+00   0.0000000000E+00   0.1997482811E-02
   0.1002237087E+01   0.9996536638E+00   0.9996536638E+00   0.7142790291E-06  -0.1528077744E-06  -0.1528077744E-06   0.2236372658E-02  -0.3461833712E-03  -0.3461833712E-03   0.1363748798E+03  -0.5179506940E+01  -0.5179506940E+01   0.1794019606E+01   0.1794019606E+01  -0.1972913694E-10   0.0000000000E+00   0.0000000000E+00   0.1997482811E-02
   0.0000000000E+00   0.9994487552E+00   0.9994487552E+00   0.0000000000E+00  -0.1491026315E-06  -0.1491026315E-06   0.0000000000E+00  -0.5510957319E-03  -0.5510957319E-03   0.1423932030E+03  -0.2604935705E+02  -0.2604935705E+02   0.1794052839E+01   0.1794052839E+01   0.5744695711E-10   0.0000000000E+00   0.0000000000E+00   0.2279462024E-02
   0.2004000000E+01   0.1413637395E-03   0.1413637395E-03   0.1000000000E-05   0.1564945513E-06   0.1564945513E-06   0.3999000000E-02   0.1412072449E-03   0.1412072449E-03   0.1303736234E+03   0.1568944027E+02   0.1568944027E+02  -0.1793986373E+01  -0.1793986373E+01   0.9699625142E-10   0.0000000000E+00   0.0000000000E+00   0.1715512625E-02
   0.2004000000E+01   0.9998586363E+00   0.1413637395E-03   0.1000000000E-05  -0.1564945513E-06   0.1564945513E-06   0.3999000000E-02  -0.1412072449E-03   0.1412072449E-03   0.1303736234E+03   0.1568944027E+02   0.1568944027E+02   0.1793986374E+01  -0.1793986373E+01   0.2300887560E-13   0.0000000000E+00   0.0000000000E+00   0.1715512625E-02
   0.2004000000E+01   0.1413637395E-03   0.9998586363E+00   0.1000000000E-05   0.1564945513E-06  -0.1564945513E-06   0.3999000000E-02   0.1412072449E-03  -0.1412072449E-03   0.1303736234E+03   0.1568944027E+02   0.1568944027E+02  -0.1793986373E+01   0.1793986374E+01  -0.6246434240E-14   0.0000000000E+00   0.0000000000E+00   0.1715512625E-02
   0.2004000000E+01   0.9998586363E+00   0.9998586363E+00   0.1000000000E-05  -0.1564945513E-06  -0.1564945513E-06   0.3999000000E-02  -0.1412072449E-03  -0.1412072449E-03   0.1303736234E+03   0.1568944027E+02   0.1568944027E+02   0.1793986373E+01   0.1793986373E+01  -0.9697948897E-10   0.0000000000E+00   0.0000000000E+00   0.1715512625E-02
     1     2     3     4     5     6     7     8
     2     9    10     3     6    11    12     7
 VARIABLES = X,Y,Z,DU1,DU2,DU3,U1,U2,U3,S11,S22,S33,S12,S13,S23,OMEGA,EP,E11
 ZONE, T="0.5000D-01" F=FEPOINT, I=   12 J=    2 ET=BRICK
   0.0000000000E+00   0.4728380533E-03   0.4728380533E-03   0.0000000000E+00  -0.1842662333E-06  -0.1842662333E-06   0.0000000000E+00   0.4730223195E-03   0.4730223195E-03   0.2022712065E+03   0.6132218122E+01   0.6132218122E+01  -0.5028956589E+00  -0.5028956589E+00   0.1530874217E-09   0.0000000000E+00   0.0000000000E+00   0.2833300081E-02
   0.1002824882E+01   0.4155954703E-03   0.4155954703E-03   0.3745035247E-06   0.9739058330E-09   0.9739058330E-09   0.2824507681E-02   0.4155944964E-03   0.4155944964E-03   0.1738808627E+03  -0.1196400273E+01  -0.1196400273E+01  -0.5032917703E+00  -0.5032917703E+00   0.6701464223E-10   0.0000000000E+00   0.0000000000E+00   0.2496336308E-02
   0.1002824882E+01   0.9995844045E+00   0.4155954703E-03   0.3745035247E-06  -0.9739058329E-09   0.9739058373E-09   0.2824507681E-02  -0.4155944964E-03   0.4155944964E-03   0.1738808627E+03  -0.1196400273E+01  -0.1196400273E+01   0.5032917716E+00  -0.5032917703E+00   0.1492780016E-13   0.0000000000E+00   0.0000000000E+00   0.2496336308E-02
   0.0000000000E+00   0.9995271619E+00   0.4728380533E-03   0.0000000000E+00   0.1842662333E-06  -0.1842662333E-06   0.0000000000E+00  -0.4730223195E-03   0.4730223195E-03   0.2022712065E+03   0.6132218122E+01   0.6132218121E+01   0.5028956601E+00  -0.5028956589E+00   0.4475236591E-14   0.0000000000E+00   0.0000000000E+00   0.2833300081E-02
   0.0000000000E+00   0.4728380533E-03   0.9995271619E+00   0.0000000000E+00  -0.1842662333E-06   0.1842662333E-06   0.0000000000E+00   0.4730223195E-03  -0.4730223195E-03   0.2022712065E+03   0.6132218121E+01   0.6132218122E+01  -0.5028956589E+00   0.5028956601E+00  -0.7784910844E-14   0.0000000000E+00   0.0000000000E+00   0.2833300081E-02
   0.1002824882E+01   0.4155954703E-03   0.9995844045E+00   0.3745035247E-06   0.9739058373E-09  -0.9739058329E-09   0.2824507681E-02   0.4155944964E-03  -0.4155944964E-03   0.1738808627E+03  -0.1196400273E+01  -0.1196400273E+01  -0.5032917703E+00   0.5032917716E+00  -0.5104924899E-14   0.0000000000E+00   0.0000000000E+00   0.2496336308E-02
   0.1002824882E+01   0.9995844045E+00   0.9995844045E+00   0.3745035247E-06  -0.9739058372E-09  -0.9739058372E-09   0.2824507681E-02  -0.4155944964E-03  -0.4155944964E-03   0.1738808627E+03  -0.1196400273E+01  -0.1196400273E+01   0.5032917716E+00   0.5032917716E+00  -0.6700481935E-10   0.0000000000E+00   0.0000000000E+00   0.2496336308E-02
   0.0000000000E+00   0.9995271619E+00   0.9995271619E+00   0.0000000000E+00   0.1842662333E-06   0.1842662333E-06   0.0000000000E+00  -0.4730223195E-03  -0.4730223195E-03   0.2022712065E+03   0.6132218121E+01   0.6132218121E+01   0.5028956601E+00   0.5028956601E+00  -0.1530907313E-09   0.0000000000E+00   0.0000000000E+00   0.2833300081E-02
   0.2005000000E+01   0.3582862476E-03   0.3582862476E-03   0.1000000000E-05   0.1862161707E-06   0.1862161707E-06   0.4999000000E-02   0.3581000314E-03   0.3581000314E-03   0.1454951876E+03  -0.8522134311E+01  -0.8522134311E+01  -0.5036878045E+00  -0.5036878045E+00  -0.1893337827E-10   0.0000000000E+00   0.0000000000E+00   0.2159345831E-02
   0.2005000000E+01   0.9996417138E+00   0.3582862476E-03   0.1000000000E-05  -0.1862161706E-06   0.1862161706E-06   0.4999000000E-02  -0.3581000314E-03   0.3581000314E-03   0.1454951876E+03  -0.8522134311E+01  -0.8522134311E+01   0.5036878058E+00  -0.5036878045E+00   0.4589603786E-13   0.0000000000E+00   0.0000000000E+00   0.2159345831E-02
   0.2005000000E+01   0.3582862476E-03   0.9996417138E+00   0.1000000000E-05   0.1862161706E-06  -0.1862161706E-06   0.4999000000E-02   0.3581000314E-03  -0.3581000314E-03   0.1454951876E+03  -0.8522134311E+01  -0.8522134311E+01  -0.5036878045E+00   0.5036878058E+00  -0.1951577003E-13   0.0000000000E+00   0.0000000000E+00   0.2159345831E-02
   0.2005000000E+01   0.9996417138E+00   0.9996417138E+00   0.1000000000E-05  -0.1862161706E-06  -0.1862161706E-06   0.4999000000E-02  -0.3581000313E-03  -0.3581000313E-03   0.1454951876E+03  -0.8522134311E+01  -0.8522134311E+01   0.5036878058E+00   0.5036878058E+00   0.1895975854E-10   0.0000000000E+00   0.0000000000E+00   0.2159345831E-02
     1     2     3     4     5     6     7     8
     2     9    10     3     6    11    12     7
 VARIABLES = X,Y,Z,DU1,DU2,DU3,U1,U2,U3,S11,S22,S33,S12,S13,S23,OMEGA,EP,E11
 ZONE, T="0.6000D-01" F=FEPOINT, I=   12 J=    2 ET=BRICK
   0.0000000000E+00   0.4450914865E-03   0.4450914865E-03   0.0000000000E+00   0.1424578809E-06   0.1424578809E-06   0.0000000000E+00   0.4449490286E-03   0.4449490286E-03   0.2129812570E+03   0.9512456323E+01   0.9512456323E+01   0.2291789751E+00   0.2291789751E+00   0.2365917221E-09   0.0000000000E+00   0.0000000000E+00   0.2954827232E-02
   0.1002965060E+01   0.4713463884E-03   0.4713463884E-03   0.5558913783E-08   0.1410806025E-06   0.1410806025E-06   0.2965054257E-02   0.4712053078E-03   0.4712053078E-03   0.2141784845E+03   0.7045349048E+01   0.7045349048E+01   0.2289534372E+00   0.2289534372E+00   0.7129236674E-10   0.0000000000E+00   0.0000000000E+00   0.2995015749E-02
   0.1002965060E+01   0.9995286536E+00   0.4713463884E-03   0.5558913780E-08  -0.1410806025E-06   0.1410806025E-06   0.2965054257E-02  -0.4712053078E-03   0.4712053078E-03   0.2141784845E+03   0.7045349048E+01   0.7045349047E+01  -0.2289534355E+00   0.2289534371E+00   0.1929139635E-13   0.0000000000E+00   0.0000000000E+00   0.2995015749E-02
   0.0000000000E+00   0.9995549085E+00   0.4450914865E-03   0.0000000000E+00  -0.1424578809E-06   0.1424578809E-06   0.0000000000E+00  -0.4449490287E-03   0.4449490287E-03   0.2129812570E+03   0.9512456323E+01   0.9512456323E+01  -0.2291789738E+00   0.2291789751E+00   0.2089423688E-13   0.0000000000E+00   0.0000000000E+00   0.2954827232E-02
   0.0000000000E+00   0.4450914865E-03   0.9995549085E+00   0.0000000000E+00   0.1424578809E-06  -0.1424578809E-06   0.0000000000E+00   0.4449490287E-03  -0.4449490287E-03   0.2129812570E+03   0.9512456323E+01   0.9512456323E+01   0.2291789751E+00  -0.2291789738E+00  -0.1142239636E-13   0.0000000000E+00   0.0000000000E+00   0.2954827232E-02
   0.1002965060E+01   0.4713463884E-03   0.9995286536E+00   0.5558913780E-08   0.1410806025E-06  -0.1410806025E-06   0.2965054257E-02   0.4712053078E-03  -0.4712053078E-03   0.2141784845E+03   0.7045349047E+01   0.7045349048E+01   0.2289534371E+00  -0.2289534355E+00  -0.2980061602E-13   0.0000000000E+00   0.0000000000E+00   0.2995015749E-02
   0.1002965060E+01   0.9995286536E+00   0.9995286536E+00   0.5558913778E-08  -0.1410806025E-06  -0.1410806025E-06   0.2965054257E-02  -0.4712053078E-03  -0.4712053078E-03   0.2141784845E+03   0.7045349047E+01   0.7045349047E+01  -0.2289534355E+00  -0.2289534355E+00  -0.7130287595E-10   0.0000000000E+00   0.0000000000E+00   0.2995015749E-02
   0.0000000000E+00   0.9995549085E+00   0.9995549085E+00   0.0000000000E+00  -0.1424578809E-06  -0.1424578809E-06   0.0000000000E+00  -0.4449490287E-03  -0.4449490287E-03   0.2129812570E+03   0.9512456322E+01   0.9512456322E+01  -0.2291789738E+00  -0.2291789738E+00  -0.2365822503E-09   0.0000000000E+00   0.0000000000E+00   0.2954827232E-02
   0.2006000000E+01   0.4975486357E-03   0.4975486357E-03   0.1000000000E-05   0.1397334329E-06   0.1397334329E-06   0.5999000000E-02   0.4974089022E-03   0.4974089022E-03   0.2153748322E+03   0.4578827480E+01   0.4578827480E+01   0.2287278752E+00   0.2287278752E+00  -0.9387165766E-10   0.0000000000E+00   0.0000000000E+00   0.3035181442E-02
   0.2006000000E+01   0.9995024514E+00   0.4975486357E-03   0.1000000000E-05  -0.1397334329E-06   0.1397334329E-06   0.5999000000E-02  -0.4974089022E-03   0.4974089022E-03   0.2153748321E+03   0.4578827480E+01   0.4578827480E+01  -0.2287278739E+00   0.2287278752E+00   0.4972811818E-13   0.0000000000E+00   0.0000000000E+00   0.3035181442E-02
   0.2006000000E+01   0.4975486357E-03   0.9995024514E+00   0.1000000000E-05   0.1397334329E-06  -0.1397334329E-06   0.5999000000E-02   0.4974089022E-03  -0.4974089022E-03   0.2153748321E+03   0.4578827480E+01   0.4578827480E+01   0.2287278752E+00  -0.2287278739E+00  -0.7223216669E-13   0.0000000000E+00   0.0000000000E+00   0.3035181442E-02
   0.2006000000E+01   0.9995024514E+00   0.9995024514E+00   0.1000000000E-05  -0.1397334329E-06  -0.1397334329E-06   0.5999000000E-02  -0.4974089022E-03  -0.4974089022E-03   0.2153748321E+03   0.4578827480E+01   0.4578827480E+01  -0.2287278739E+00  -0.2287278739E+00   0.9384915361E-10   0.0000000000E+00   0.0000000000E+00   0.3035181441E-02
     1     2     3     4     5     6     7     8
     2     9    10     3     6    11    12     7
 VARIABLES = X,Y,Z,DU1,DU2,DU3,U1,U2,U3,S11,S22,S33,S12,S13,S23,OMEGA,EP,E11
 ZONE, T="0.7000D-01" F=FEPOINT, I=   12 J=    2 ET=BRICK
   0.0000000000E+00   0.5402329121E-03   0.5402329121E-03   0.0000000000E+00  -0.5331507905E-07  -0.5331507905E-07   0.0000000000E+00   0.5402862271E-03   0.5402862271E-03   0.2056308329E+03  -0.1796983255E+02  -0.1796983255E+02   0.5954307340E+00   0.5954307340E+00   0.8123976525E-10   0.0000000000E+00   0.0000000000E+00   0.3108130646E-02
   0.1003128596E+01   0.6084801279E-03   0.6084801279E-03   0.4272068891E-06   0.6938317343E-07   0.6938317343E-07   0.3128168338E-02   0.6084107447E-03   0.6084107447E-03   0.2377992266E+03  -0.1002771150E+02  -0.1002771150E+02   0.5952364387E+00   0.5952364387E+00  -0.2944926510E-10   0.0000000000E+00   0.0000000000E+00   0.3493323959E-02
   0.1003128596E+01   0.9993915199E+00   0.6084801279E-03   0.4272068890E-06  -0.6938317343E-07   0.6938317343E-07   0.3128168338E-02  -0.6084107447E-03   0.6084107447E-03   0.2377992266E+03  -0.1002771150E+02  -0.1002771150E+02  -0.5952364388E+00   0.5952364387E+00   0.4059583895E-13   0.0000000000E+00   0.0000000000E+00   0.3493323959E-02
   0.0000000000E+00   0.9994597671E+00   0.5402329121E-03   0.0000000000E+00   0.5331507909E-07  -0.5331507906E-07   0.0000000000E+00  -0.5402862271E-03   0.5402862271E-03   0.2056308329E+03  -0.1796983255E+02  -0.1796983255E+02  -0.5954307340E+00   0.5954307340E+00   0.7776704681E-13   0.0000000000E+00   0.0000000000E+00   0.3108130646E-02
   0.0000000000E+00   0.5402329121E-03   0.9994597671E+00   0.0000000000E+00  -0.5331507906E-07   0.5331507909E-07   0.0000000000E+00   0.5402862271E-03  -0.5402862271E-03   0.2056308329E+03  -0.1796983255E+02  -0.1796983255E+02   0.5954307340E+00  -0.5954307340E+00   0.5587907540E-14   0.0000000000E+00   0.0000000000E+00   0.3108130646E-02
   0.1003128596E+01   0.6084801279E-03   0.9993915199E+00   0.4272068890E-06   0.6938317343E-07  -0.6938317343E-07   0.3128168338E-02   0.6084107447E-03  -0.6084107447E-03   0.2377992266E+03  -0.1002771150E+02  -0.1002771150E+02   0.5952364387E+00  -0.5952364388E+00  -0.5374504542E-13   0.0000000000E+00   0.0000000000E+00   0.3493323959E-02
   0.1003128596E+01   0.9993915199E+00   0.9993915199E+00   0.4272068890E-06  -0.6938317342E-07  -0.6938317342E-07   0.3128168338E-02  -0.6084107447E-03  -0.6084107447E-03   0.2377992266E+03  -0.1002771150E+02  -0.1002771150E+02  -0.5952364387E+00  -0.5952364387E+00   0.2943611589E-10   0.0000000000E+00   0.0000000000E+00   0.3493323959E-02
   0.0000000000E+00   0.9994597671E+00   0.9994597671E+00   0.0000000000E+00   0.5331507910E-07   0.5331507910E-07   0.0000000000E+00  -0.5402862271E-03  -0.5402862271E-03   0.2056308328E+03  -0.1796983255E+02  -0.1796983255E+02  -0.5954307340E+00  -0.5954307340E+00  -0.8115641029E-10   0.0000000000E+00   0.0000000000E+00   0.3108130646E-02
   0.2007000000E+01   0.6767146232E-03   0.6767146232E-03   0.1000000000E-05   0.1921237444E-06   0.1921237444E-06   0.6999000000E-02   0.6765224995E-03   0.6765224995E-03   0.2699708790E+03  -0.2084333623E+01  -0.2084333623E+01   0.5950421127E+00   0.5950421127E+00  -0.1400102238E-09   0.0000000000E+00   0.0000000000E+00   0.3878515728E-02
   0.2007000000E+01   0.9993232854E+00   0.6767146232E-03   0.1000000000E-05  -0.1921237445E-06   0.1921237444E-06   0.6999000000E-02  -0.6765224995E-03   0.6765224995E-03   0.2699708790E+03  -0.2084333623E+01  -0.2084333623E+01  -0.5950421127E+00   0.5950421127E+00   0.2414909340E-13   0.0000000000E+00   0.0000000000E+00   0.3878515727E-02