 VARIABLES = X,Y,DU1,DU2,U1,U2
 ZONE, T="0.1000D-02" F=FEPOINT, I= 4624 J= 4489
  -0.5000000000E+00  -0.5000000000E+00  -0.1771421445E-01   0.1302880226E-01   0.0000000000E+00   0.8798439564E-02
  -0.4850746390E+00  -0.5000000000E+00  -0.1617724435E-01   0.1186078209E-01   0.0000000000E+00   0.7856991583E-02
  -0.4850746390E+00  -0.4850746390E+00  -0.1470328608E-01   0.1068562933E-01   0.0000000000E+00   0.7016280136E-02
  -0.5000000000E+00  -0.4850746390E+00  -0.1617724435E-01   0.1186078208E-01   0.0000000000E+00   0.7856991583E-02
  -0.4701492490E+00  -0.5000000000E+00  -0.1206645833E-01   0.7792484661E-02   0.0000000000E+00   0.6523371233E-02
  -0.4701492490E+00  -0.4850746390E+00  -0.1077576226E-01   0.6728049085E-02   0.0000000000E+00   0.5825359429E-02
  -0.4552238880E+00  -0.5000000000E+00  -0.6866211920E-02   0.2876885683E-02   0.0000000000E+00   0.4864149248E-02
  -0.4552238880E+00  -0.4850746390E+00  -0.5844241524E-02   0.1991218748E-02   0.0000000000E+00   0.4343677015E-02
  -0.4402984980E+00  -0.5000000000E+00  -0.2304267151E-02  -0.8096162922E-03   0.0000000000E+00   0.2962136995E-02
  -0.4402984980E+00  -0.4850746390E+00  -0.1589384261E-02  -0.1493548170E-02   0.0000000000E+00   0.2645183304E-02
  -0.4253731370E+00  -0.5000000000E+00   0.5187653040E-03  -0.2021974272E-02   0.0000000000E+00   0.9122777984E-03
  -0.4253731370E+00  -0.4850746390E+00   0.9257566193E-03  -0.2509904311E-02   0.0000000000E+00   0.8146625241E-03
  -0.4104477470E+00  -0.5000000000E+00   0.1636324676E-02  -0.8116819860E-03   0.0000000000E+00  -0.1183120364E-02
  -0.4104477470E+00  -0.4850746390E+00   0.1749660314E-02  -0.1118823899E-02   0.0000000000E+00  -0.1056524475E-02
  -0.3955223860E+00  -0.5000000000E+00   0.2153331478E-02   0.1386923726E-02   0.0000000000E+00  -0.3219460864E-02
  -0.3955223860E+00  -0.4850746390E+00   0.1977438991E-02   0.1261511506E-02   0.0000000000E+00  -0.2874973082E-02
  -0.3805970250E+00  -0.5000000000E+00   0.3595605667E-02   0.2297627805E-02   0.0000000000E+00  -0.5095107014E-02
  -0.3805970250E+00  -0.4850746390E+00   0.3111435331E-02   0.2396089482E-02   0.0000000000E+00  -0.4549921908E-02
  -0.3656716350E+00  -0.5000000000E+00   0.6926899784E-02   0.9227011273E-04   0.0000000000E+00  -0.6716441721E-02
  -0.3656716350E+00  -0.4850746390E+00   0.6101671080E-02   0.4965825004E-03   0.0000000000E+00  -0.5997771047E-02
  -0.3507462740E+00  -0.5000000000E+00   0.1177942482E-01  -0.5173115025E-02   0.0000000000E+00  -0.8002532327E-02
  -0.3507462740E+00  -0.4850746390E+00   0.1059995636E-01  -0.4387769475E-02   0.0000000000E+00  -0.7146247772E-02
  -0.3358208840E+00  -0.5000000000E+00   0.1647118336E-01  -0.1115098813E-01   0.0000000000E+00  -0.8889190360E-02
  -0.3358208840E+00  -0.4850746390E+00   0.1498183000E-01  -0.9987085544E-02   0.0000000000E+00  -0.7938031889E-02
  -0.3208955230E+00  -0.5000000000E+00   0.1894881974E-01  -0.1451813078E-01   0.0000000000E+00  -0.9332156241E-02
  -0.3208955230E+00  -0.4850746390E+00   0.1726488428E-01  -0.1309433617E-01   0.0000000000E+00  -0.8333599668E-02
  -0.3059701620E+00  -0.5000000000E+00   0.1810933531E-01  -0.1330138012E-01   0.0000000000E+00  -0.9309322150E-02
  -0.3059701620E+00  -0.4850746390E+00   0.1638936821E-01  -0.1181513376E-01   0.0000000000E+00  -0.8313208864E-02
  -0.2910447720E+00  -0.5000000000E+00   0.1456975170E-01  -0.8425805991E-02   0.0000000000E+00  -0.8821826429E-02
  -0.2910447720E+00  -0.4850746390E+00   0.1296005582E-01  -0.7056918047E-02   0.0000000000E+00  -0.7877876013E-02
  -0.2761194110E+00  -0.5000000000E+00   0.1027861386E-01  -0.3130116891E-02   0.0000000000E+00  -0.7894003549E-02
  -0.2761194110E+00  -0.4850746390E+00   0.8866575845E-02  -0.1957044530E-02   0.0000000000E+00  -0.7049331759E-02
  -0.2611940210E+00  -0.5000000000E+00   0.7211925108E-02  -0.6153031760E-03   0.0000000000E+00  -0.6572160928E-02
  -0.2611940210E+00  -0.4850746390E+00   0.6020052277E-02   0.3900217462E-03   0.0000000000E+00  -0.5868928543E-02
  -0.2462686600E+00  -0.5000000000E+00   0.6092493207E-02  -0.1781878108E-02   0.0000000000E+00  -0.4922281384E-02
  -0.2462686600E+00  -0.4850746390E+00   0.5114361702E-02  -0.8837788805E-03   0.0000000000E+00  -0.4395588914E-02
  -0.2313432840E+00  -0.5000000000E+00   0.6034742816E-02  -0.4796697251E-02   0.0000000000E+00  -0.3026711872E-02
  -0.2313432840E+00  -0.4850746390E+00   0.5282822517E-02  -0.4001454996E-02   0.0000000000E+00  -0.2702848560E-02
  -0.2164179090E+00  -0.5000000000E+00   0.5294459807E-02  -0.6650646240E-02   0.0000000000E+00  -0.9800686121E-03
  -0.2164179090E+00  -0.4850746390E+00   0.4823546456E-02  -0.6042072292E-02   0.0000000000E+00  -0.8751996056E-03
  -0.2014925330E+00  -0.5000000000E+00   0.2510044885E-02  -0.5305935203E-02   0.0000000000E+00   0.1115493470E-02
  -0.2014925330E+00  -0.4850746390E+00   0.2401723036E-02  -0.5014331598E-02   0.0000000000E+00   0.9961337733E-03
  -0.1865671580E+00  -0.5000000000E+00  -0.2426177364E-02  -0.8286636941E-03   0.0000000000E+00   0.3155377197E-02
  -0.1865671580E+00  -0.4850746390E+00  -0.2103610048E-02  -0.9579301155E-03   0.0000000000E+00   0.2817746476E-02
  -0.1716417970E+00  -0.5000000000E+00  -0.8340617158E-02   0.4996814638E-02   0.0000000000E+00   0.5037763255E-02
  -0.1716417970E+00  -0.4850746390E+00  -0.7569176941E-02   0.4418188038E-02   0.0000000000E+00   0.4498714028E-02
  -0.1567164210E+00  -0.5000000000E+00  -0.1346446546E-01   0.9885339716E-02   0.0000000000E+00   0.6668698729E-02
  -0.1567164210E+00  -0.4850746390E+00  -0.1229101621E-01   0.8908733734E-02   0.0000000000E+00   0.5955136636E-02
  -0.1417910460E+00  -0.5000000000E+00  -0.1634847399E-01   0.1215486664E-01   0.0000000000E+00   0.7966775804E-02
  -0.1417910460E+00  -0.4850746390E+00  -0.1487411546E-01   0.1088811246E-01   0.0000000000E+00   0.7114317258E-02
  -0.1268656700E+00  -0.5000000000E+00  -0.1654043083E-01   0.1131680984E-01   0.0000000000E+00   0.8867203037E-02
  -0.1268656700E+00  -0.4850746390E+00  -0.1489322554E-01   0.9894845837E-02   0.0000000000E+00   0.7918397248E-02
  -0.1119403020E+00  -0.5000000000E+00  -0.1475945926E-01   0.8230317658E-02   0.0000000000E+00   0.9325036702E-02
  -0.1119403020E+00  -0.4850746390E+00  -0.1306186542E-01   0.6784597433E-02   0.0000000000E+00   0.8327241933E-02
  -0.9701492640E-01  -0.5000000000E+00  -0.1250028972E-01   0.4834809532E-02   0.0000000000E+00   0.9317425199E-02
  -0.9701492640E-01  -0.4850746390E+00  -0.1084311460E-01   0.3459719006E-02   0.0000000000E+00   0.8320444873E-02
  -0.8208955080E-01  -0.5000000000E+00  -0.1120122270E-01   0.3286530787E-02   0.0000000000E+00   0.8844748094E-02
  -0.8208955080E-01  -0.4850746390E+00  -0.9636054721E-02   0.2016592232E-02   0.0000000000E+00   0.7898345021E-02
  -0.6716418270E-01  -0.5000000000E+00  -0.1135692607E-01   0.4632426705E-02   0.0000000000E+00   0.7930598935E-02
  -0.6716418270E-01  -0.4850746390E+00  -0.9913339811E-02   0.3455545191E-02   0.0000000000E+00   0.7082011376E-02
  -0.5223880710E-01  -0.5000000000E+00  -0.1212062480E-01   0.7832703276E-02   0.0000000000E+00   0.6620605222E-02
  -0.5223880710E-01  -0.4850746390E+00  -0.1083955875E-01   0.6744075355E-02   0.0000000000E+00   0.5912189215E-02
  -0.3731343150E-01  -0.5000000000E+00  -0.1176986098E-01   0.1012645937E-01   0.0000000000E+00   0.4980153718E-02
  -0.3731343150E-01  -0.4850746390E+00  -0.1072916243E-01   0.9186117068E-02   0.0000000000E+00   0.4447268809E-02
  -0.2238805960E-01  -0.5000000000E+00  -0.8860593425E-02   0.8858206410E-02   0.0000000000E+00   0.3091125643E-02
  -0.2238805960E-01  -0.4850746390E+00  -0.8168812995E-02   0.8197728780E-02   0.0000000000E+00   0.2760369948E-02
  -0.7462686390E-02  -0.5000000000E+00  -0.3322972232E-02   0.3541744016E-02   0.0000000000E+00   0.1047808462E-02
  -0.7462686390E-02  -0.4850746390E+00  -0.3078968656E-02   0.3301411193E-02   0.0000000000E+00   0.9356911768E-03
   0.7462686390E-02  -0.5000000000E+00   0.3322972242E-02  -0.3541744047E-02   0.0000000000E+00  -0.1047808462E-02
   0.7462686390E-02  -0.4850746390E+00   0.3078968660E-02  -0.3301411207E-02   0.0000000000E+00  -0.9356911768E-03
   0.2238805960E-01  -0.5000000000E+00   0.8860593434E-02  -0.8858206438E-02   0.0000000000E+00  -0.3091125643E-02
   0.2238805960E-01  -0.4850746390E+00   0.8168812999E-02  -0.8197728792E-02   0.0000000000E+00  -0.2760369948E-02
   0.3731343150E-01  -0.5000000000E+00   0.1176986099E-01  -0.1012645940E-01   0.0000000000E+00  -0.4980153718E-02
   0.3731343150E-01  -0.4850746390E+00   0.1072916243E-01  -0.9186117077E-02   0.0000000000E+00  -0.4447268809E-02
   0.5223880710E-01  -0.5000000000E+00   0.1212062480E-01  -0.7832703292E-02   0.0000000000E+00  -0.6620605222E-02
   0.5223880710E-01  -0.4850746390E+00   0.1083955875E-01  -0.6744075362E-02   0.0000000000E+00  -0.5912189215E-02
   0.6716418270E-01  -0.5000000000E+00   0.1135692607E-01  -0.4632426711E-02   0.0000000000E+00  -0.7930598935E-02
   0.6716418270E-01  -0.4850746390E+00   0.9913339813E-02  -0.3455545194E-02   0.0000000000E+00  -0.7082011376E-02
   0.8208955080E-01  -0.5000000000E+00   0.1120122270E-01  -0.3286530781E-02   0.0000000000E+00  -0.8844748094E-02
   0.8208955080E-01  -0.4850746390E+00   0.9636054721E-02  -0.2016592230E-02   0.0000000000E+00  -0.7898345021E-02
   0.9701492640E-01  -0.5000000000E+00   0.1250028972E-01  -0.4834809517E-02   0.0000000000E+00  -0.9317425199E-02
   0.9701492640E-01  -0.4850746390E+00   0.1084311459E-01  -0.3459718998E-02   0.0000000000E+00  -0.8320444873E-02
   0.1119403020E+00  -0.5000000000E+00   0.1475945925E-01  -0.8230317638E-02   0.0000000000E+00  -0.9325036702E-02
   0.1119403020E+00  -0.4850746390E+00   0.1306186542E-01  -0.6784597422E-02   0.0000000000E+00  -0.8327241933E-02
   0.1268656700E+00  -0.5000000000E+00   0.1654043082E-01  -0.1131680982E-01   0.0000000000E+00  -0.8867203037E-02
   0.1268656700E+00  -0.4850746390E+00   0.1489322554E-01  -0.9894845829E-02   0.0000000000E+00  -0.7918397248E-02
   0.1417910460E+00  -0.5000000000E+00   0.1634847399E-01  -0.1215486662E-01   0.0000000000E+00  -0.7966775804E-02
   0.1417910460E+00  -0.4850746390E+00   0.1487411546E-01  -0.1088811246E-01   0.0000000000E+00  -0.7114317258E-02
   0.1567164210E+00  -0.5000000000E+00   0.1346446546E-01  -0.9885339700E-02   0.0000000000E+00  -0.6668698729E-02
   0.1567164210E+00  -0.4850746390E+00   0.1229101620E-01  -0.8908733730E-02   0.0000000000E+00  -0.5955136636E-02
   0.1716417970E+00  -0.5000000000E+00   0.8340617150E-02  -0.4996814616E-02   0.0000000000E+00  -0.5037763255E-02
   0.1716417970E+00  -0.4850746390E+00   0.7569176937E-02  -0.4418188029E-02   0.0000000000E+00  -0.4498714028E-02
   0.1865671580E+00  -0.5000000000E+00   0.2426177354E-02   0.8286637229E-03   0.0000000000E+00  -0.3155377197E-02
   0.1865671580E+00  -0.4850746390E+00   0.2103610043E-02   0.9579301303E-03   0.0000000000E+00  -0.2817746476E-02
   0.2014925330E+00  -0.5000000000E+00  -0.2510044894E-02   0.5305935231E-02   0.0000000000E+00  -0.1115493470E-02
   0.2014925330E+00  -0.4850746390E+00  -0.2401723041E-02   0.5014331614E-02   0.0000000000E+00  -0.9961337733E-03
   0.2164179090E+00  -0.5000000000E+00  -0.5294459814E-02   0.6650646259E-02   0.0000000000E+00   0.9800686121E-03
   0.2164179090E+00  -0.4850746390E+00  -0.4823546459E-02   0.6042072301E-02   0.0000000000E+00   0.8751996056E-03
   0.2313432840E+00  -0.5000000000E+00  -0.6034742819E-02   0.4796697259E-02   0.0000000000E+00   0.3026711872E-02
   0.2313432840E+00  -0.4850746390E+00  -0.5282822517E-02   0.4001454997E-02   0.0000000000E+00   0.2702848560E-02
   0.2462686600E+00  -0.5000000000E+00  -0.6092493207E-02   0.1781878110E-02   0.0000000000E+00   0.4922281384E-02
   0.2462686600E+00  -0.4850746390E+00  -0.5114361702E-02   0.8837788783E-03   0.0000000000E+00   0.4395588914E-02
   0.2611940210E+00  -0.5000000000E+00  -0.7211925108E-02   0.6153031763E-03   0.0000000000E+00   0.6572160928E-02
   0.2611940210E+00  -0.4850746390E+00  -0.6020052277E-02  -0.3900217456E-03   0.0000000000E+00   0.5868928543E-02
   0.2761194110E+00  -0.5000000000E+00  -0.1027861386E-01   0.3130116888E-02   0.0000000000E+00   0.7894003549E-02
   0.2761194110E+00  -0.4850746390E+00  -0.8866575845E-02   0.1957044533E-02   0.0000000000E+00   0.7049331759E-02
   0.2910447720E+00  -0.5000000000E+00  -0.1456975169E-01   0.8425805977E-02   0.0000000000E+00   0.8821826429E-02
   0.2910447720E+00  -0.4850746390E+00  -0.1296005582E-01   0.7056918044E-02   0.0000000000E+00   0.7877876013E-02
   0.3059701620E+00  -0.5000000000E+00  -0.1810933530E-01   0.1330138009E-01   0.0000000000E+00   0.9309322150E-02
   0.3059701620E+00  -0.4850746390E+00  -0.1638936820E-01   0.1181513375E-01   0.0000000000E+00   0.8313208864E-02
   0.3208955230E+00  -0.5000000000E+00  -0.1894881973E-01   0.1451813074E-01   0.0000000000E+00   0.9332156241E-02
   0.3208955230E+00  -0.4850746390E+00  -0.1726488427E-01   0.1309433615E-01   0.0000000000E+00   0.8333599668E-02
   0.3358208840E+00  -0.5000000000E+00  -0.1647118335E-01   0.1115098809E-01   0.0000000000E+00   0.8889190360E-02
   0.3358208840E+00  -0.4850746390E+00  -0.1498182999E-01   0.9987085522E-02   0.0000000000E+00   0.7938031889E-02
   0.3507462740E+00  -0.5000000000E+00  -0.1177942481E-01   0.5173114999E-02   0.0000000000E+00   0.8002532327E-02
   0.3507462740E+00  -0.4850746390E+00  -0.1059995636E-01   0.4387769464E-02   0.0000000000E+00   0.7146247772E-02
   0.3656716350E+00  -0.5000000000E+00  -0.6926899780E-02  -0.9227012470E-04   0.0000000000E+00   0.6716441721E-02
   0.3656716350E+00  -0.4850746390E+00  -0.6101671080E-02  -0.4965825006E-03   0.0000000000E+00   0.5997771047E-02
   0.3805970250E+00  -0.5000000000E+00  -0.3595605665E-02  -0.2297627811E-02   0.0000000000E+00   0.5095107014E-02
   0.3805970250E+00  -0.4850746390E+00  -0.3111435332E-02  -0.2396089481E-02   0.0000000000E+00   0.4549921908E-02
   0.3955223860E+00  -0.5000000000E+00  -0.2153331476E-02  -0.1386923735E-02   0.0000000000E+00   0.3219460864E-02
   0.3955223860E+00  -0.4850746390E+00  -0.1977438989E-02  -0.1261511510E-02   0.0000000000E+00   0.2874973082E-02
   0.4104477470E+00  -0.5000000000E+00  -0.1636324674E-02   0.8116819780E-03   0.0000000000E+00   0.1183120364E-02
   0.4104477470E+00  -0.4850746390E+00  -0.1749660312E-02   0.1118823891E-02   0.0000000000E+00   0.1056524475E-02
   0.4253731370E+00  -0.5000000000E+00  -0.5187653053E-03   0.2021974275E-02   0.0000000000E+00  -0.9122777984E-03
   0.4253731370E+00  -0.4850746390E+00  -0.9257566191E-03   0.2509904310E-02   0.0000000000E+00  -0.8146625241E-03
   0.4402984980E+00  -0.5000000000E+00   0.2304267144E-02   0.8096163119E-03   0.0000000000E+00  -0.2962136995E-02
   0.4402984980E+00  -0.4850746390E+00   0.1589384258E-02   0.1493548181E-02   0.0000000000E+00  -0.2645183304E-02
   0.4552238880E+00  -0.5000000000E+00   0.6866211910E-02  -0.2876885653E-02   0.0000000000E+00  -0.4864149248E-02
   0.4552238880E+00  -0.4850746390E+00   0.5844241518E-02  -0.1991218730E-02   0.0000000000E+00  -0.4343677015E-02
   0.4701492490E+00  -0.5000000000E+00   0.1206645832E-01  -0.7792484635E-02   0.0000000000E+00  -0.6523371233E-02
   0.4701492490E+00  -0.4850746390E+00   0.1077576226E-01  -0.6728049071E-02   0.0000000000E+00  -0.5825359429E-02
   0.4850746390E+00  -0.5000000000E+00   0.1617724435E-01  -0.1186078207E-01   0.0000000000E+00  -0.7856991583E-02
   0.4850746390E+00  -0.4850746390E+00   0.1470328608E-01  -0.1068562933E-01   0.0000000000E+00  -0.7016280136E-02
   0.5000000000E+00  -0.5000000000E+00   0.1771421444E-01  -0.1302880225E-01   0.0000000000E+00  -0.8798439564E-02
   0.5000000000E+00  -0.4850746390E+00   0.1617724435E-01  -0.1186078208E-01   0.0000000000E+00  -0.7856991583E-02
  -0.4850746390E+00  -0.4701492490E+00  -0.1077576226E-01   0.6728049070E-02   0.0000000000E+00   0.5825359429E-02
  -0.5000000000E+00  -0.4701492490E+00  -0.1206645832E-01   0.7792484639E-02   0.0000000000E+00   0.6523371233E-02
  -0.4701492490E+00  -0.4701492490E+00  -0.7370706541E-02   0.3252488329E-02   0.0000000000E+00   0.4836581753E-02
  -0.4552238880E+00  -0.4701492490E+00  -0.3193726521E-02  -0.7829772072E-03   0.0000000000E+00   0.3606395321E-02
  -0.4402984980E+00  -0.4701492490E+00   0.2144047122E-03  -0.3491560219E-02   0.0000000000E+00   0.2196198442E-02
  -0.4253731370E+00  -0.4701492490E+00   0.1901252134E-02  -0.3757198103E-02   0.0000000000E+00   0.6763843410E-03
  -0.4104477470E+00  -0.4701492490E+00   0.1957544224E-02  -0.1684081635E-02   0.0000000000E+00  -0.8771934263E-03
  -0.3955223860E+00  -0.4701492490E+00   0.1444891177E-02   0.1346114012E-02   0.0000000000E+00  -0.2386984446E-02
  -0.3805970250E+00  -0.4701492490E+00   0.1789562168E-02   0.3214631825E-02   0.0000000000E+00  -0.3777632873E-02
  -0.3656716350E+00  -0.4701492490E+00   0.3892746813E-02   0.2251158952E-02   0.0000000000E+00  -0.4979728780E-02
  -0.3507462740E+00  -0.4701492490E+00   0.7455214854E-02  -0.1510122423E-02   0.0000000000E+00  -0.5933266779E-02
  -0.3358208840E+00  -0.4701492490E+00   0.1101394453E-01  -0.6021181934E-02   0.0000000000E+00  -0.6590656020E-02
  -0.3208955230E+00  -0.4701492490E+00   0.1278922197E-01  -0.8410837680E-02   0.0000000000E+00  -0.6919081403E-02
  -0.3059701620E+00  -0.4701492490E+00   0.1184483895E-01  -0.7012466644E-02   0.0000000000E+00  -0.6902151668E-02
  -0.2910447720E+00  -0.4701492490E+00   0.8748168797E-02  -0.2679438286E-02   0.0000000000E+00  -0.6540710808E-02
  -0.2761194110E+00  -0.4701492490E+00   0.5215894475E-02   0.1751043414E-02   0.0000000000E+00  -0.5852800976E-02
  -0.2611940210E+00  -0.4701492490E+00   0.2969623634E-02   0.3501612427E-02   0.0000000000E+00  -0.4872755586E-02
  -0.2462686600E+00  -0.4701492490E+00   0.2619978947E-02   0.1806137187E-02   0.0000000000E+00  -0.3649495862E-02
  -0.2313432840E+00  -0.4701492490E+00   0.3358402970E-02  -0.1715315732E-02   0.0000000000E+00  -0.2244075783E-02
  -0.2164179090E+00  -0.4701492490E+00   0.3611398433E-02  -0.4393719827E-02   0.0000000000E+00  -0.7266460541E-03
  -0.2014925330E+00  -0.4701492490E+00   0.2128708672E-02  -0.4370390092E-02   0.0000000000E+00   0.8270532471E-03
  -0.1865671580E+00  -0.4701492490E+00  -0.1242203576E-02  -0.1607304197E-02   0.0000000000E+00   0.2339471299E-02
  -0.1716417970E+00  -0.4701492490E+00  -0.5517576884E-02   0.2405835247E-02   0.0000000000E+00   0.3735116853E-02
  -0.1567164210E+00  -0.4701492490E+00  -0.9175744202E-02   0.5695755406E-02   0.0000000000E+00   0.4944330996E-02
  -0.1417910460E+00  -0.4701492490E+00  -0.1097356021E-01   0.6801051365E-02   0.0000000000E+00   0.5906756047E-02
  -0.1268656700E+00  -0.4701492490E+00  -0.1055862568E-01   0.5339226961E-02   0.0000000000E+00   0.6574354099E-02
  -0.1119403020E+00  -0.4701492490E+00  -0.8623057716E-02   0.2155556721E-02   0.0000000000E+00   0.6913802809E-02
  -0.9701492640E-01  -0.4701492490E+00  -0.6533941399E-02  -0.9561833426E-03   0.0000000000E+00   0.6908159460E-02
  -0.8208955080E-01  -0.4701492490E+00  -0.5574630381E-02  -0.2074138316E-02   0.0000000000E+00   0.6557705473E-02
  -0.6716418270E-01  -0.4701492490E+00  -0.6155341233E-02  -0.3322984760E-03   0.0000000000E+00   0.5879933661E-02
  -0.5223880710E-01  -0.4701492490E+00  -0.7478640822E-02   0.3261327965E-02   0.0000000000E+00   0.4908673332E-02
  -0.3731343150E-01  -0.4701492490E+00  -0.7973422183E-02   0.6202827781E-02   0.0000000000E+00   0.3692403779E-02
  -0.2238805960E-01  -0.4701492490E+00  -0.6322922826E-02   0.6117059438E-02   0.0000000000E+00   0.2291833677E-02
  -0.7462686390E-02  -0.4701492490E+00  -0.2425161840E-02   0.2547184722E-02   0.0000000000E+00   0.7768699816E-03
   0.7462686390E-02  -0.4701492490E+00   0.2425161834E-02  -0.2547184703E-02   0.0000000000E+00  -0.7768699816E-03
   0.2238805960E-01  -0.4701492490E+00   0.6322922820E-02  -0.6117059419E-02   0.0000000000E+00  -0.2291833677E-02
   0.3731343150E-01  -0.4701492490E+00   0.7973422178E-02  -0.6202827766E-02   0.0000000000E+00  -0.3692403779E-02
   0.5223880710E-01  -0.4701492490E+00   0.7478640820E-02  -0.3261327956E-02   0.0000000000E+00  -0.4908673332E-02
   0.6716418270E-01  -0.4701492490E+00   0.6155341233E-02   0.3322984767E-03   0.0000000000E+00  -0.5879933661E-02
   0.8208955080E-01  -0.4701492490E+00   0.5574630382E-02   0.2074138311E-02   0.0000000000E+00  -0.6557705473E-02
   0.9701492640E-01  -0.4701492490E+00   0.6533941401E-02   0.9561833356E-03   0.0000000000E+00  -0.6908159460E-02
   0.1119403020E+00  -0.4701492490E+00   0.8623057718E-02  -0.2155556729E-02   0.0000000000E+00  -0.6913802809E-02
   0.1268656700E+00  -0.4701492490E+00   0.1055862568E-01  -0.5339226972E-02   0.0000000000E+00  -0.6574354099E-02
   0.1417910460E+00  -0.4701492490E+00   0.1097356021E-01  -0.6801051380E-02   0.0000000000E+00  -0.5906756047E-02
   0.1567164210E+00  -0.4701492490E+00   0.9175744208E-02  -0.5695755424E-02   0.0000000000E+00  -0.4944330996E-02
   0.1716417970E+00  -0.4701492490E+00   0.5517576889E-02  -0.2405835263E-02   0.0000000000E+00  -0.3735116853E-02
   0.1865671580E+00  -0.4701492490E+00   0.1242203580E-02   0.1607304185E-02   0.0000000000E+00  -0.2339471299E-02
   0.2014925330E+00  -0.4701492490E+00  -0.2128708669E-02   0.4370390083E-02   0.0000000000E+00  -0.8270532471E-03
   0.2164179090E+00  -0.4701492490E+00  -0.3611398430E-02   0.4393719817E-02   0.0000000000E+00   0.7266460541E-03
   0.2313432840E+00  -0.4701492490E+00  -0.3358402966E-02   0.1715315720E-02   0.0000000000E+00   0.2244075783E-02
   0.2462686600E+00  -0.4701492490E+00  -0.2619978944E-02  -0.1806137196E-02   0.0000000000E+00   0.3649495862E-02
   0.2611940210E+00  -0.4701492490E+00  -0.2969623634E-02  -0.3501612427E-02   0.0000000000E+00   0.4872755586E-02
   0.2761194110E+00  -0.4701492490E+00  -0.5215894479E-02  -0.1751043402E-02   0.0000000000E+00   0.5852800976E-02
   0.2910447720E+00  -0.4701492490E+00  -0.8748168803E-02   0.2679438304E-02   0.0000000000E+00   0.6540710808E-02
   0.3059701620E+00  -0.4701492490E+00  -0.1184483896E-01   0.7012466661E-02   0.0000000000E+00   0.6902151668E-02
   0.3208955230E+00  -0.4701492490E+00  -0.1278922197E-01   0.8410837694E-02   0.0000000000E+00   0.6919081403E-02
   0.3358208840E+00  -0.4701492490E+00  -0.1101394454E-01   0.6021181949E-02   0.0000000000E+00   0.6590656020E-02
   0.3507462740E+00  -0.4701492490E+00  -0.7455214860E-02   0.1510122441E-02   0.0000000000E+00   0.5933266779E-02
   0.3656716350E+00  -0.4701492490E+00  -0.3892746820E-02  -0.2251158931E-02   0.0000000000E+00   0.4979728780E-02
   0.3805970250E+00  -0.4701492490E+00  -0.1789562173E-02  -0.3214631811E-02   0.0000000000E+00   0.3777632873E-02
   0.3955223860E+00  -0.4701492490E+00  -0.1444891178E-02  -0.1346114009E-02   0.0000000000E+00   0.2386984446E-02
   0.4104477470E+00  -0.4701492490E+00  -0.1957544222E-02   0.1684081628E-02   0.0000000000E+00   0.8771934263E-03
   0.4253731370E+00  -0.4701492490E+00  -0.1901252131E-02   0.3757198094E-02   0.0000000000E+00  -0.6763843410E-03
   0.4402984980E+00  -0.4701492490E+00  -0.2144047103E-03   0.3491560213E-02   0.0000000000E+00  -0.2196198442E-02
   0.4552238880E+00  -0.4701492490E+00   0.3193726522E-02   0.7829772029E-03   0.0000000000E+00  -0.3606395321E-02
   0.4701492490E+00  -0.4701492490E+00   0.7370706544E-02  -0.3252488338E-02   0.0000000000E+00  -0.4836581753E-02
   0.4850746390E+00  -0.4701492490E+00   0.1077576226E-01  -0.6728049088E-02   0.0000000000E+00  -0.5825359429E-02
   0.5000000000E+00  -0.4701492490E+00   0.1206645833E-01  -0.7792484661E-02   0.0000000000E+00  -0.6523371233E-02
  -0.4850746390E+00  -0.4552238880E+00  -0.5844241518E-02   0.1991218729E-02   0.0000000000E+00   0.4343677015E-02
  -0.5000000000E+00  -0.4552238880E+00  -0.6866211911E-02   0.2876885657E-02   0.0000000000E+00   0.4864149248E-02
  -0.4701492490E+00  -0.4552238880E+00  -0.3193726519E-02  -0.7829772134E-03   0.0000000000E+00   0.3606395321E-02
  -0.4552238880E+00  -0.4552238880E+00  -0.7920710898E-04  -0.3834639435E-02   0.0000000000E+00   0.2689107282E-02
  -0.4402984980E+00  -0.4552238880E+00   0.2184574780E-02  -0.5513271497E-02   0.0000000000E+00   0.1637594522E-02
  -0.4253731370E+00  -0.4552238880E+00   0.2819640431E-02  -0.4871357709E-02   0.0000000000E+00   0.5043457234E-03
  -0.4104477470E+00  -0.4552238880E+00   0.1974680834E-02  -0.2083430614E-02   0.0000000000E+00  -0.6540789405E-03
  -0.3955223860E+00  -0.4552238880E+00   0.6402457851E-03   0.1539770577E-02   0.0000000000E+00  -0.1779854033E-02
  -0.3805970250E+00  -0.4552238880E+00   0.9743905358E-04   0.4092455078E-02   0.0000000000E+00  -0.2816790497E-02
  -0.3656716350E+00  -0.4552238880E+00   0.1143191359E-02   0.4130508346E-02   0.0000000000E+00  -0.3713132847E-02
  -0.3507462740E+00  -0.4552238880E+00   0.3531197644E-02   0.1705603811E-02   0.0000000000E+00  -0.4424138089E-02
  -0.3358208840E+00  -0.4552238880E+00   0.6034829062E-02  -0.1450210561E-02   0.0000000000E+00  -0.4914320123E-02
  -0.3208955230E+00  -0.4552238880E+00   0.7182297587E-02  -0.2973006309E-02   0.0000000000E+00  -0.5159210383E-02
  -0.3059701620E+00  -0.4552238880E+00   0.6225321487E-02  -0.1543406272E-02   0.0000000000E+00  -0.5146586733E-02
  -0.2910447720E+00  -0.4552238880E+00   0.3668165742E-02   0.2075978279E-02   0.0000000000E+00  -0.4877078495E-02
  -0.2761194110E+00  -0.4552238880E+00   0.9525461199E-03   0.5523710213E-02   0.0000000000E+00  -0.4364138794E-02
  -0.2611940210E+00  -0.4552238880E+00  -0.4983520684E-03   0.6522534447E-02   0.0000000000E+00  -0.3633368326E-02
  -0.2462686600E+00  -0.4552238880E+00  -0.2003788350E-03   0.4462957561E-02   0.0000000000E+00  -0.2721245184E-02
  -0.2313432840E+00  -0.4552238880E+00   0.1140066719E-02   0.7066924229E-03   0.0000000000E+00  -0.1673294244E-02
  -0.2164179090E+00  -0.4552238880E+00   0.2168093378E-02  -0.2494092007E-02   0.0000000000E+00  -0.5418233503E-03
  -0.2014925330E+00  -0.4552238880E+00   0.1787051381E-02  -0.3518229700E-02   0.0000000000E+00   0.6166919352E-03
  -0.1865671580E+00  -0.4552238880E+00  -0.1832917948E-03  -0.2239946919E-02   0.0000000000E+00   0.1744425873E-02
  -0.1716417970E+00  -0.4552238880E+00  -0.2957352216E-02   0.1598352945E-03   0.0000000000E+00   0.2785088443E-02
  -0.1567164210E+00  -0.4552238880E+00  -0.5280488936E-02   0.2039072445E-02   0.0000000000E+00   0.3686738503E-02
  -0.1417910460E+00  -0.4552238880E+00  -0.6130060859E-02   0.2165644865E-02   0.0000000000E+00   0.4404370372E-02
  -0.1268656700E+00  -0.4552238880E+00  -0.5250805795E-02   0.2574993119E-03   0.0000000000E+00   0.4902164602E-02
  -0.1119403020E+00  -0.4552238880E+00  -0.3285192738E-02  -0.2875284569E-02   0.0000000000E+00   0.5155274402E-02
  -0.9701492640E-01  -0.4552238880E+00  -0.1436999498E-02  -0.5622422588E-02   0.0000000000E+00   0.5151066441E-02
  -0.8208955080E-01  -0.4552238880E+00  -0.8022742132E-03  -0.6339597708E-02   0.0000000000E+00   0.4889750560E-02
  -0.6716418270E-01  -0.4552238880E+00  -0.1697590279E-02  -0.4361477068E-02   0.0000000000E+00   0.4384370270E-02
  -0.5223880710E-01  -0.4552238880E+00  -0.3399818414E-02  -0.6329120958E-03   0.0000000000E+00   0.3660150379E-02
  -0.3731343150E-01  -0.4552238880E+00  -0.4539104009E-02   0.2677570058E-02   0.0000000000E+00   0.2753239456E-02
  -0.2238805960E-01  -0.4552238880E+00  -0.3973036375E-02   0.3555369420E-02   0.0000000000E+00   0.1708904899E-02
  -0.7462686390E-02  -0.4552238880E+00  -0.1583314926E-02   0.1599187087E-02   0.0000000000E+00   0.5792728025E-03
   0.7462686390E-02  -0.4552238880E+00   0.1583314916E-02  -0.1599187057E-02   0.0000000000E+00  -0.5792728025E-03
   0.2238805960E-01  -0.4552238880E+00   0.3973036366E-02  -0.3555369391E-02   0.0000000000E+00  -0.1708904899E-02
   0.3731343150E-01  -0.4552238880E+00   0.4539104000E-02  -0.2677570033E-02   0.0000000000E+00  -0.2753239456E-02
   0.5223880710E-01  -0.4552238880E+00   0.3399818409E-02   0.6329121112E-03   0.0000000000E+00  -0.3660150379E-02
   0.6716418270E-01  -0.4552238880E+00   0.1697590279E-02   0.4361477070E-02   0.0000000000E+00  -0.4384370270E-02
   0.8208955080E-01  -0.4552238880E+00   0.8022742163E-03   0.6339597698E-02   0.0000000000E+00  -0.4889750560E-02
   0.9701492640E-01  -0.4552238880E+00   0.1436999503E-02   0.5622422574E-02   0.0000000000E+00  -0.5151066441E-02
   0.1119403020E+00  -0.4552238880E+00   0.3285192743E-02   0.2875284554E-02   0.0000000000E+00  -0.5155274402E-02
   0.1268656700E+00  -0.4552238880E+00   0.5250805800E-02  -0.2574993268E-03   0.0000000000E+00  -0.4902164602E-02
   0.1417910460E+00  -0.4552238880E+00   0.6130060865E-02  -0.2165644883E-02   0.0000000000E+00  -0.4404370372E-02
   0.1567164210E+00  -0.4552238880E+00   0.5280488944E-02  -0.2039072468E-02   0.0000000000E+00  -0.3686738503E-02
   0.1716417970E+00  -0.4552238880E+00   0.2957352224E-02  -0.1598353194E-03   0.0000000000E+00  -0.2785088443E-02
   0.1865671580E+00  -0.4552238880E+00   0.1832918024E-03   0.2239946897E-02   0.0000000000E+00  -0.1744425873E-02
   0.2014925330E+00  -0.4552238880E+00  -0.1787051375E-02   0.3518229681E-02   0.0000000000E+00  -0.6166919352E-03
   0.2164179090E+00  -0.4552238880E+00  -0.2168093373E-02   0.2494091991E-02   0.0000000000E+00   0.5418233503E-03
   0.2313432840E+00  -0.4552238880E+00  -0.1140066714E-02  -0.7066924376E-03   0.0000000000E+00   0.1673294244E-02
   0.2462686600E+00  -0.4552238880E+00   0.2003788388E-03  -0.4462957572E-02   0.0000000000E+00   0.2721245184E-02
   0.2611940210E+00  -0.4552238880E+00   0.4983520690E-03  -0.6522534449E-02   0.0000000000E+00   0.3633368326E-02
   0.2761194110E+00  -0.4552238880E+00  -0.9525461238E-03  -0.5523710202E-02   0.0000000000E+00   0.4364138794E-02