 VARIABLES = X,Y,DU1,DU2,U1,U2,S11,S22,S33,S12,SMISES
 ZONE, T="0.1000D+01" F=FEPOINT, I=    9 J=    4
   0.0000000000E+00   0.0000000000E+00   0.0000000000E+00   0.0000000000E+00   0.0000000000E+00   0.0000000000E+00   0.5494505495E+01   0.7418168220E-15  -0.1648351648E+01   0.1291604555E-14   0.4758381339E+01
   0.2100000000E+01   0.0000000000E+00   0.1000000000E+00   0.0000000000E+00   0.0000000000E+00   0.0000000000E+00   0.5494505495E+01  -0.1689496347E-15  -0.1648351648E+01  -0.7806860763E-15   0.4758381339E+01
   0.2100000000E+01   0.1957142857E+01   0.1000000000E+00  -0.4285714286E-01   0.0000000000E+00   0.0000000000E+00   0.5494505495E+01  -0.3342600993E-14  -0.1648351648E+01  -0.2618894059E-15   0.4758381339E+01
   0.0000000000E+00   0.1957142857E+01   0.0000000000E+00  -0.4285714286E-01   0.0000000000E+00   0.0000000000E+00   0.5494505495E+01   0.1289797841E-14  -0.1648351648E+01  -0.3399059347E-15   0.4758381339E+01
   0.1050000000E+01   0.0000000000E+00   0.5000000000E-01   0.0000000000E+00   0.0000000000E+00   0.0000000000E+00   0.5494505495E+01   0.2864335936E-15  -0.1648351648E+01   0.2554592394E-15   0.4758381339E+01
   0.2100000000E+01   0.9785714286E+00   0.1000000000E+00  -0.2142857143E-01   0.0000000000E+00   0.0000000000E+00   0.5494505495E+01  -0.1755775314E-14  -0.1648351648E+01  -0.5212877411E-15   0.4758381339E+01
   0.1050000000E+01   0.1957142857E+01   0.5000000000E-01  -0.4285714286E-01   0.0000000000E+00   0.0000000000E+00   0.5494505495E+01  -0.1026401576E-14  -0.1648351648E+01  -0.3008976703E-15   0.4758381339E+01
   0.0000000000E+00   0.9785714286E+00   0.0000000000E+00  -0.2142857143E-01   0.0000000000E+00   0.0000000000E+00   0.5494505495E+01   0.1015807331E-14  -0.1648351648E+01   0.4758493102E-15   0.4758381339E+01
   0.1050000000E+01   0.9785714286E+00   0.5000000000E-01  -0.2142857143E-01   0.0000000000E+00   0.0000000000E+00   0.5494505495E+01   0.1015807331E-14  -0.1648351648E+01   0.4758493102E-15   0.4758381339E+01
           1           5           9           8
           5           2           6           9
           9           6           3           7
           8           9           7           4
