 VARIABLES = X,Y,Z,U11,U22,U33,S11,S22,S33,S12,S13,S23
 ZONE, T="0.1000D+01" F=FEPOINT, I=   12 J=    2 ET=BRICK
   0.0000000000E+00   0.0000000000E+00   0.0000000000E+00   0.0000000000E+00   0.0000000000E+00   0.0000000000E+00   0.1500000002E+01  -0.4724257853E-15  -0.1731925654E-15   0.2255897367E-16   0.8058811190E-15   0.4767840923E-15
   0.1150000000E+01   0.0000000000E+00   0.1403694530E-12   0.0000000000E+00   0.0000000000E+00   0.0000000000E+00   0.1500000002E+01   0.4071471890E-15  -0.2201607504E-15   0.2073402849E-15   0.3150963818E-15   0.4718595666E-15
   0.1150000000E+01  -0.1490000000E+03   0.2147311971E-12   0.0000000000E+00   0.0000000000E+00   0.0000000000E+00   0.1500000002E+01   0.5622896340E-15  -0.4009549208E-15  -0.2641088836E-15  -0.2299659974E-15  -0.5462455084E-15
   0.0000000000E+00  -0.1490000000E+03   0.1040719160E-12   0.0000000000E+00   0.0000000000E+00   0.0000000000E+00   0.1500000002E+01  -0.5697267813E-15  -0.6842437205E-15  -0.6805800667E-15   0.7676924981E-15  -0.8456031058E-16
   0.0000000000E+00   0.0000000000E+00  -0.1490000000E+03   0.0000000000E+00   0.0000000000E+00   0.0000000000E+00   0.1500000002E+01  -0.6054923687E-15   0.7548218282E-15  -0.1165376397E-16  -0.7749678146E-15   0.6818664056E-16
   0.1150000000E+01   0.0000000000E+00  -0.1490000000E+03   0.0000000000E+00   0.0000000000E+00   0.0000000000E+00   0.1500000002E+01  -0.1920528019E-15   0.1867430075E-15   0.3311076368E-16  -0.2018400027E-15   0.1746897267E-15
   0.1150000000E+01  -0.1490000000E+03  -0.1490000000E+03   0.0000000000E+00   0.0000000000E+00   0.0000000000E+00   0.1500000002E+01   0.2404509798E-16   0.6690429188E-16   0.3248311610E-16  -0.2556344253E-15  -0.3571800910E-15
   0.0000000000E+00  -0.1490000000E+03  -0.1490000000E+03   0.0000000000E+00   0.0000000000E+00   0.0000000000E+00   0.1500000002E+01  -0.6276931263E-15   0.3188709114E-15  -0.9935035066E-15  -0.5333038634E-15  -0.6223650891E-15
   0.2300000000E+01   0.0000000000E+00   0.1853948420E-12   0.0000000000E+00   0.0000000000E+00   0.0000000000E+00   0.1500000002E+01   0.4822588551E-16   0.5851171404E-15   0.2342945400E-16   0.9800102561E-16  -0.2948244898E-15
   0.2300000000E+01  -0.1490000000E+03   0.1639345940E-12   0.0000000000E+00   0.0000000000E+00   0.0000000000E+00   0.1500000002E+01   0.1516312907E-15   0.1282419625E-14  -0.4903491187E-15  -0.4682713260E-15   0.6002635976E-15
   0.2300000000E+01   0.0000000000E+00  -0.1490000000E+03   0.0000000000E+00   0.0000000000E+00   0.0000000000E+00   0.1500000002E+01   0.1040039708E-15   0.2597543143E-15  -0.3246152875E-16   0.8644536768E-15   0.5629542297E-15
   0.2300000000E+01  -0.1490000000E+03  -0.1490000000E+03   0.0000000000E+00   0.0000000000E+00   0.0000000000E+00   0.1500000002E+01  -0.3226686300E-15   0.4269787925E-15   0.1089058545E-14   0.6550772474E-15   0.1622607211E-15
     1     2     3     4     5     6     7     8
     2     9    10     3     6    11    12     7
 VARIABLES = X,Y,Z,U11,U22,U33,S11,S22,S33,S12,S13,S23
 ZONE, T="0.2000D+01" F=FEPOINT, I=   12 J=    2 ET=BRICK
   0.0000000000E+00   0.0000000000E+00   0.0000000000E+00   0.0000000000E+00   0.0000000000E+00   0.0000000000E+00   0.3000000005E+01   0.1794388445E-15  -0.4727578530E-15  -0.4341042197E-17   0.1743728023E-15  -0.7823140779E-16
   0.1300000000E+01   0.0000000000E+00   0.3929412739E-13   0.0000000000E+00   0.0000000000E+00   0.0000000000E+00   0.3000000005E+01  -0.4401860168E-15   0.2540388359E-15   0.1861793941E-15  -0.9347639255E-16   0.1246326055E-15
   0.1300000000E+01  -0.2990000000E+03   0.4418646438E-13   0.0000000000E+00   0.0000000000E+00   0.0000000000E+00   0.3000000004E+01  -0.3501423202E-15   0.5230561671E-15   0.9776120686E-16  -0.5308240097E-15   0.3525239769E-16
   0.0000000000E+00  -0.2990000000E+03   0.3717135759E-13   0.0000000000E+00   0.0000000000E+00   0.0000000000E+00   0.3000000004E+01  -0.1880767237E-15  -0.4514252799E-15  -0.2766980682E-16   0.2427955232E-16   0.2967814130E-16
   0.0000000000E+00   0.0000000000E+00  -0.2990000000E+03   0.0000000000E+00   0.0000000000E+00   0.0000000000E+00   0.3000000004E+01   0.2824901392E-15   0.3539310460E-15   0.1246021884E-16   0.3258190653E-15   0.5772373816E-15
   0.1300000000E+01   0.0000000000E+00  -0.2990000000E+03   0.0000000000E+00   0.0000000000E+00   0.0000000000E+00   0.3000000004E+01   0.4182439537E-15  -0.2455614727E-15  -0.7993017398E-16   0.3107567182E-16  -0.2010212533E-15
   0.1300000000E+01  -0.2990000000E+03  -0.2990000000E+03   0.0000000000E+00   0.0000000000E+00   0.0000000000E+00   0.3000000004E+01   0.5082876501E-15  -0.4315219089E-15   0.3166074631E-15  -0.1899814442E-15   0.1466872014E-15
   0.0000000000E+00  -0.2990000000E+03  -0.2990000000E+03   0.0000000000E+00   0.0000000000E+00   0.0000000000E+00   0.3000000004E+01   0.1261305000E-15   0.6027524931E-15   0.2952998163E-15   0.5019505347E-15  -0.5109487208E-15
   0.2600000000E+01   0.0000000000E+00   0.8211385268E-13   0.0000000000E+00   0.0000000000E+00   0.0000000000E+00   0.3000000005E+01   0.5599594328E-15  -0.3050296610E-15  -0.3242689059E-17   0.2566439908E-15  -0.2794845670E-15
   0.2600000000E+01  -0.2990000000E+03   0.5336365185E-13   0.0000000000E+00   0.0000000000E+00   0.0000000000E+00   0.3000000004E+01   0.2553796129E-15   0.1525986322E-15  -0.4766472015E-16  -0.4391126075E-17   0.3080227934E-15
   0.2600000000E+01   0.0000000000E+00  -0.2990000000E+03   0.0000000000E+00   0.0000000000E+00   0.0000000000E+00   0.3000000004E+01  -0.4907667848E-15  -0.3763398483E-15  -0.7051528877E-16   0.4452065054E-15   0.3793101722E-15
   0.2600000000E+01  -0.2990000000E+03  -0.2990000000E+03   0.0000000000E+00   0.0000000000E+00   0.0000000000E+00   0.3000000004E+01  -0.1006502534E-14   0.9762138994E-16   0.4104909989E-15   0.1752651984E-15  -0.2889127147E-16
     1     2     3     4     5     6     7     8
     2     9    10     3     6    11    12     7
 VARIABLES = X,Y,Z,U11,U22,U33,S11,S22,S33,S12,S13,S23
 ZONE, T="0.3000D+01" F=FEPOINT, I=   12 J=    2 ET=BRICK
   0.0000000000E+00   0.0000000000E+00   0.0000000000E+00   0.0000000000E+00   0.0000000000E+00   0.0000000000E+00   0.4500000007E+01   0.6002039981E-15  -0.2186837577E-16  -0.2631607665E-16  -0.2767710592E-15  -0.4413763000E-16
   0.1450000000E+01   0.0000000000E+00  -0.5660118157E-13   0.0000000000E+00   0.0000000000E+00   0.0000000000E+00   0.4500000007E+01   0.6300352576E-15  -0.5936397031E-15  -0.1230032953E-15   0.1389133062E-15  -0.6374349194E-16
   0.1450000000E+01  -0.4490000000E+03  -0.6014855863E-13   0.0000000000E+00   0.0000000000E+00   0.0000000000E+00   0.4500000006E+01   0.7737867402E-15  -0.9294308721E-15  -0.2983310577E-15   0.1194633820E-15   0.2338258584E-15
   0.0000000000E+00  -0.4490000000E+03   0.7416068763E-14   0.0000000000E+00   0.0000000000E+00   0.0000000000E+00   0.4500000007E+01   0.4390832723E-15   0.1460272016E-15   0.6567188756E-16  -0.2806574019E-15   0.4392725625E-15
   0.0000000000E+00   0.0000000000E+00  -0.4490000000E+03   0.0000000000E+00   0.0000000000E+00   0.0000000000E+00   0.4500000007E+01  -0.3355144903E-15  -0.4064608684E-15  -0.8749330609E-18  -0.9693695888E-16  -0.2370393789E-15
   0.1450000000E+01   0.0000000000E+00  -0.4490000000E+03   0.0000000000E+00   0.0000000000E+00   0.0000000000E+00   0.4500000006E+01  -0.4722165753E-15   0.1755453150E-15  -0.7302741602E-16   0.3769606731E-16   0.6524564619E-16
   0.1450000000E+01  -0.4490000000E+03  -0.4490000000E+03   0.0000000000E+00   0.0000000000E+00   0.0000000000E+00   0.4500000006E+01   0.5814904425E-15  -0.1602458540E-15  -0.8875652022E-17   0.4528710313E-15  -0.6258316118E-15
   0.0000000000E+00  -0.4490000000E+03  -0.4490000000E+03   0.0000000000E+00   0.0000000000E+00   0.0000000000E+00   0.4500000006E+01  -0.5293011062E-15  -0.2385652910E-15  -0.2392122663E-15  -0.3567571990E-15   0.4791223164E-15
   0.2900000000E+01   0.0000000000E+00  -0.1675188489E-12   0.0000000000E+00   0.0000000000E+00   0.0000000000E+00   0.4500000007E+01  -0.3138235305E-15  -0.5761759341E-15   0.2193704832E-16  -0.6667068735E-15   0.2088108933E-15
   0.2900000000E+01  -0.4490000000E+03  -0.1257152167E-12   0.0000000000E+00   0.0000000000E+00   0.0000000000E+00   0.4500000006E+01  -0.2297389822E-15  -0.5641215896E-15  -0.3499092716E-16  -0.3470517237E-15  -0.3524360497E-15
   0.2900000000E+01   0.0000000000E+00  -0.4490000000E+03   0.0000000000E+00   0.0000000000E+00   0.0000000000E+00   0.4500000006E+01   0.2373023624E-15   0.1346786595E-14  -0.5021142127E-16   0.3704424001E-15  -0.3237150724E-15
   0.2900000000E+01  -0.4490000000E+03  -0.4490000000E+03   0.0000000000E+00   0.0000000000E+00   0.0000000000E+00   0.4500000006E+01  -0.1335908375E-15   0.1358840939E-14   0.1057011599E-16  -0.5197083812E-16   0.5933923993E-15
     1     2     3     4     5     6     7     8
     2     9    10     3     6    11    12     7
 VARIABLES = X,Y,Z,U11,U22,U33,S11,S22,S33,S12,S13,S23
 ZONE, T="0.4000D+01" F=FEPOINT, I=   12 J=    2 ET=BRICK
   0.0000000000E+00   0.0000000000E+00   0.0000000000E+00   0.0000000000E+00   0.0000000000E+00   0.0000000000E+00   0.6000000009E+01  -0.7084191951E-15   0.2985273591E-15   0.5863647703E-16  -0.4282954397E-16   0.5752846131E-15
   0.1600000000E+01   0.0000000000E+00   0.4468058806E-13   0.0000000000E+00   0.0000000000E+00   0.0000000000E+00   0.6000000009E+01  -0.9003185018E-15   0.8230333046E-15  -0.3569581104E-16   0.5928301496E-15   0.3411924194E-15
   0.1600000000E+01  -0.5990000000E+03   0.9828781011E-13   0.0000000000E+00   0.0000000000E+00   0.0000000000E+00   0.6000000009E+01  -0.2282231137E-15   0.1514509663E-15   0.7468635748E-16  -0.1089688014E-15   0.8655119192E-16
   0.0000000000E+00  -0.5990000000E+03   0.1033408187E-12   0.0000000000E+00   0.0000000000E+00   0.0000000000E+00   0.6000000009E+01  -0.1044466875E-14   0.6343185138E-15  -0.4171407505E-15  -0.2172678041E-17  -0.6221542814E-15
   0.0000000000E+00   0.0000000000E+00  -0.5990000000E+03   0.0000000000E+00   0.0000000000E+00   0.0000000000E+00   0.6000000009E+01  -0.7084191951E-15   0.2985273590E-15  -0.5015782300E-16   0.3024354469E-15  -0.1641559699E-14
   0.1600000000E+01   0.0000000000E+00  -0.5990000000E+03   0.0000000000E+00   0.0000000000E+00   0.0000000000E+00   0.6000000009E+01  -0.9003185017E-15   0.8230333045E-15   0.3942789905E-16  -0.6364177450E-15  -0.4808237361E-15
   0.1600000000E+01  -0.5990000000E+03  -0.5990000000E+03   0.0000000000E+00   0.0000000000E+00   0.0000000000E+00   0.6000000008E+01  -0.2282231137E-15   0.1514509663E-15  -0.3746951354E-16  -0.9879176874E-16  -0.1550742236E-15
   0.0000000000E+00  -0.5990000000E+03  -0.5990000000E+03   0.0000000000E+00   0.0000000000E+00   0.0000000000E+00   0.6000000008E+01  -0.1044466875E-14   0.6343185137E-15   0.2077256374E-15   0.1667928386E-16   0.1305366549E-14
   0.3200000000E+01   0.0000000000E+00   0.1404533382E-12   0.0000000000E+00   0.0000000000E+00   0.0000000000E+00   0.6000000009E+01   0.1235988958E-14  -0.9785146804E-15   0.9836395439E-16   0.3288908830E-15  -0.4913044018E-15
   0.3200000000E+01  -0.5990000000E+03   0.1520028272E-12   0.0000000000E+00   0.0000000000E+00   0.0000000000E+00   0.6000000008E+01   0.1211861851E-14  -0.9544059914E-15  -0.7647378063E-16   0.5120635377E-15   0.1038208759E-14
   0.3200000000E+01   0.0000000000E+00  -0.5990000000E+03   0.0000000000E+00   0.0000000000E+00   0.0000000000E+00   0.6000000008E+01   0.1235988957E-14  -0.9785146803E-15  -0.3483648665E-16   0.2173067220E-15   0.3948698550E-15
   0.3200000000E+01  -0.5990000000E+03  -0.5990000000E+03   0.0000000000E+00   0.0000000000E+00   0.0000000000E+00   0.6000000008E+01   0.1211861851E-14  -0.9544059913E-15  -0.2805318151E-15  -0.1220336701E-14  -0.5059407761E-15
     1     2     3     4     5     6     7     8
     2     9    10     3     6    11    12     7
 VARIABLES = X,Y,Z,U11,U22,U33,S11,S22,S33,S12,S13,S23
 ZONE, T="0.5000D+01" F=FEPOINT, I=   12 J=    2 ET=BRICK
   0.0000000000E+00   0.0000000000E+00   0.0000000000E+00   0.0000000000E+00   0.0000000000E+00   0.0000000000E+00   0.7500000012E+01  -0.6780694375E-15   0.1107888712E-16  -0.1549206555E-15  -0.1077812527E-15   0.2874425004E-15
   0.1750000000E+01   0.0000000000E+00  -0.7178913773E-14   0.0000000000E+00   0.0000000000E+00   0.0000000000E+00   0.7500000012E+01   0.3344832048E-15   0.2952161428E-15  -0.3761451699E-15  -0.6319863220E-15   0.1306154122E-15
   0.1750000000E+01  -0.7490000000E+03   0.2869230514E-13   0.0000000000E+00   0.0000000000E+00   0.0000000000E+00   0.7500000011E+01   0.7749655918E-15  -0.7215915968E-15  -0.1893193463E-15   0.9078397815E-15  -0.1000745779E-15
   0.0000000000E+00  -0.7490000000E+03   0.5407087132E-13   0.0000000000E+00   0.0000000000E+00   0.0000000000E+00   0.7500000011E+01   0.1078944200E-14   0.6302311273E-15   0.8331933008E-16  -0.2372711165E-15  -0.8903367259E-15
   0.0000000000E+00   0.0000000000E+00  -0.7490000000E+03   0.0000000000E+00   0.0000000000E+00   0.0000000000E+00   0.7500000011E+01   0.1031887276E-14   0.6772125746E-15   0.1176618903E-15   0.9797992002E-16   0.1192176118E-14
   0.1750000000E+01   0.0000000000E+00  -0.7490000000E+03   0.0000000000E+00   0.0000000000E+00   0.0000000000E+00   0.7500000011E+01  -0.2424055156E-15   0.2952161427E-15   0.1059042114E-14  -0.3810014759E-15   0.5374331867E-16
   0.1750000000E+01  -0.7490000000E+03  -0.7490000000E+03   0.0000000000E+00   0.0000000000E+00   0.0000000000E+00   0.7500000010E+01  -0.2242350253E-15  -0.5545788077E-16   0.8100853898E-15   0.3773398078E-15  -0.1838699137E-15
   0.0000000000E+00  -0.7490000000E+03  -0.7490000000E+03   0.0000000000E+00   0.0000000000E+00   0.0000000000E+00   0.7500000010E+01  -0.5744335275E-15  -0.1035103148E-14   0.1087141357E-16  -0.6716639009E-16  -0.3455508955E-15
   0.3500000000E+01   0.0000000000E+00  -0.2592633831E-13   0.0000000000E+00   0.0000000000E+00   0.0000000000E+00   0.7500000011E+01  -0.1139009026E-14   0.1630079623E-14  -0.1741203014E-15   0.1407711559E-16   0.3220949283E-15
   0.3500000000E+01  -0.7490000000E+03   0.2479684277E-13   0.0000000000E+00   0.0000000000E+00   0.0000000000E+00   0.7500000010E+01  -0.1951468190E-15  -0.1022688096E-14   0.7976141298E-15   0.5475666234E-17  -0.5990948348E-15
   0.3500000000E+01   0.0000000000E+00  -0.7490000000E+03   0.0000000000E+00   0.0000000000E+00   0.0000000000E+00   0.7500000010E+01  -0.8505646777E-15  -0.3683214960E-15   0.1722218207E-15   0.1270773245E-15  -0.1025222417E-14
   0.3500000000E+01  -0.7490000000E+03  -0.7490000000E+03   0.0000000000E+00   0.0000000000E+00   0.0000000000E+00   0.7500000010E+01   0.3044534682E-15   0.6426461797E-15  -0.4429931324E-15  -0.1640026100E-15   0.5435711197E-15
     1     2     3     4     5     6     7     8
     2     9    10     3     6    11    12     7
 VARIABLES = X,Y,Z,U11,U22,U33,S11,S22,S33,S12,S13,S23
 ZONE, T="0.6000D+01" F=FEPOINT, I=   12 J=    2 ET=BRICK
   0.0000000000E+00   0.0000000000E+00   0.0000000000E+00   0.0000000000E+00   0.0000000000E+00   0.0000000000E+00   0.9000000014E+01  -0.3740994720E-14  -0.2036470165E-14  -0.3156399026E-16   0.9972099437E-15   0.8149945496E-15
   0.1900000000E+01   0.0000000000E+00   0.2644085488E-12   0.0000000000E+00   0.0000000000E+00   0.0000000000E+00   0.9000000014E+01   0.2283435940E-15  -0.1474378415E-15  -0.9138239182E-15  -0.1575073767E-14   0.1510158058E-15
   0.1900000000E+01  -0.8990000000E+03   0.3577431451E-12   0.0000000000E+00   0.0000000000E+00   0.0000000000E+00   0.9000000013E+01  -0.6486324023E-15   0.4472457905E-15  -0.1390571452E-14  -0.1539387367E-14  -0.1906438370E-15
   0.0000000000E+00  -0.8990000000E+03   0.1449470555E-12   0.0000000000E+00   0.0000000000E+00   0.0000000000E+00   0.9000000013E+01  -0.3288180847E-15  -0.2999945602E-14  -0.3394867932E-15   0.1100595828E-14  -0.1154304178E-14
   0.0000000000E+00   0.0000000000E+00  -0.8990000000E+03   0.0000000000E+00   0.0000000000E+00   0.0000000000E+00   0.9000000013E+01   0.1873315758E-14   0.1720210041E-14  -0.9967662571E-16   0.3048566157E-14   0.2406188256E-15
   0.1900000000E+01   0.0000000000E+00  -0.8990000000E+03   0.0000000000E+00   0.0000000000E+00   0.0000000000E+00   0.9000000013E+01  -0.4377900356E-15   0.2371545810E-15  -0.1947479076E-15  -0.1661338794E-14   0.2896686812E-15
   0.1900000000E+01  -0.8990000000E+03  -0.8990000000E+03   0.0000000000E+00   0.0000000000E+00   0.0000000000E+00   0.9000000012E+01   0.5051450384E-15   0.3441945747E-15   0.3015391210E-15  -0.9775342451E-15   0.2448122491E-15
   0.0000000000E+00  -0.8990000000E+03  -0.8990000000E+03   0.0000000000E+00   0.0000000000E+00   0.0000000000E+00   0.9000000012E+01   0.1223358373E-14   0.4152734935E-14   0.9647174785E-15   0.8516017191E-15  -0.3707897985E-16
   0.3800000000E+01   0.0000000000E+00   0.6442653095E-12   0.0000000000E+00   0.0000000000E+00   0.0000000000E+00   0.9000000014E+01   0.3428497062E-14   0.2510779327E-14  -0.8283880477E-17   0.2051592015E-14  -0.6325979124E-15
   0.3800000000E+01  -0.8990000000E+03   0.5542109483E-12   0.0000000000E+00   0.0000000000E+00   0.0000000000E+00   0.9000000013E+01  -0.7623442884E-15   0.3688334751E-14  -0.4111647781E-15   0.8134856504E-15  -0.3102077484E-15
   0.3800000000E+01   0.0000000000E+00  -0.8990000000E+03   0.0000000000E+00   0.0000000000E+00   0.0000000000E+00   0.9000000013E+01   0.1217414662E-15  -0.4116538174E-14  -0.1226389496E-15   0.1230247997E-14   0.6744353106E-16
   0.3800000000E+01  -0.8990000000E+03  -0.8990000000E+03   0.0000000000E+00   0.0000000000E+00   0.0000000000E+00   0.9000000012E+01  -0.9822531414E-15  -0.2695160940E-14   0.1293067079E-14   0.1675371202E-14   0.5136214078E-15
     1     2     3     4     5     6     7     8
     2     9    10     3     6    11    12     7
 VARIABLES = X,Y,Z,U11,U22,U33,S11,S22,S33,S12,S13,S23
 ZONE, T="0.7000D+01" F=FEPOINT, I=   12 J=    2 ET=BRICK
   0.0000000000E+00   0.0000000000E+00   0.0000000000E+00   0.0000000000E+00   0.0000000000E+00   0.0000000000E+00   0.1050000002E+02  -0.1108674700E-14  -0.1335923476E-14  -0.2336051246E-15   0.6726125105E-15   0.4404329495E-15
   0.2050000000E+01   0.0000000000E+00   0.1844119133E-12   0.0000000000E+00   0.0000000000E+00   0.0000000000E+00   0.1050000002E+02   0.4510281047E-16  -0.1821459652E-15  -0.7797229093E-15  -0.1416264007E-14  -0.7666889450E-17
   0.2050000000E+01  -0.1049000000E+04   0.1724424060E-12   0.0000000000E+00   0.0000000000E+00   0.0000000000E+00   0.1050000001E+02   0.4510281046E-16  -0.1821459652E-15  -0.6824812039E-15  -0.7884562022E-15  -0.5475236993E-15
   0.0000000000E+00  -0.1049000000E+04   0.9794640800E-13   0.0000000000E+00   0.0000000000E+00   0.0000000000E+00   0.1050000002E+02  -0.1108674700E-14  -0.1335923476E-14   0.8851932519E-15   0.3885518926E-15  -0.4071475380E-15
   0.0000000000E+00   0.0000000000E+00  -0.1049000000E+04   0.0000000000E+00   0.0000000000E+00   0.0000000000E+00   0.1050000002E+02   0.1198880321E-14   0.9716315455E-15   0.2671353344E-15   0.1552939231E-14  -0.2174191111E-15
   0.2050000000E+01   0.0000000000E+00  -0.1049000000E+04   0.0000000000E+00   0.0000000000E+00   0.0000000000E+00   0.1050000001E+02   0.4510281042E-16  -0.1821459653E-15   0.4596763673E-16  -0.9887565549E-15   0.2701185368E-15
   0.2050000000E+01  -0.1049000000E+04  -0.1049000000E+04   0.0000000000E+00   0.0000000000E+00   0.0000000000E+00   0.1050000001E+02   0.4510281041E-16  -0.1821459652E-15   0.1212128796E-14  -0.2653830172E-15   0.4655869647E-15
   0.0000000000E+00  -0.1049000000E+04  -0.1049000000E+04   0.0000000000E+00   0.0000000000E+00   0.0000000000E+00   0.1050000001E+02   0.1198880321E-14   0.9716315454E-15   0.1030314046E-14   0.8698068929E-15   0.3458439592E-16
   0.4100000000E+01   0.0000000000E+00   0.3289855651E-12   0.0000000000E+00   0.0000000000E+00   0.0000000000E+00   0.1050000002E+02   0.1198880321E-14   0.9716315454E-15   0.4745254714E-16   0.4260587555E-15  -0.6439979269E-15
   0.4100000000E+01  -0.1049000000E+04   0.3304987397E-12   0.0000000000E+00   0.0000000000E+00   0.0000000000E+00   0.1050000001E+02   0.1198880321E-14   0.9716315453E-15   0.7243647309E-15   0.1061072898E-14   0.7808505259E-15
   0.4100000000E+01   0.0000000000E+00  -0.1049000000E+04   0.0000000000E+00   0.0000000000E+00   0.0000000000E+00   0.1050000001E+02  -0.1108674700E-14  -0.1335923476E-14  -0.2226504066E-16   0.2264432765E-14  -0.3291409704E-15
   0.4100000000E+01  -0.1049000000E+04  -0.1049000000E+04   0.0000000000E+00   0.0000000000E+00   0.0000000000E+00   0.1050000001E+02  -0.1108674700E-14  -0.1335923476E-14   0.1050328709E-14  -0.2909590183E-15   0.1758342665E-15
     1     2     3     4     5     6     7     8
     2     9    10     3     6    11    12     7
 VARIABLES = X,Y,Z,U11,U22,U33,S11,S22,S33,S12,S13,S23
 ZONE, T="0.8000D+01" F=FEPOINT, I=   12 J=    2 ET=BRICK
   0.0000000000E+00   0.0000000000E+00   0.0000000000E+00   0.0000000000E+00   0.0000000000E+00   0.0000000000E+00   0.1200000002E+02   0.2475406670E-14  -0.1298618946E-14   0.1024933521E-15  -0.1229017448E-14  -0.4113530785E-15
   0.2200000000E+01   0.0000000000E+00  -0.2620397017E-12   0.0000000000E+00   0.0000000000E+00   0.0000000000E+00   0.1200000002E+02   0.4189768630E-15   0.6992798893E-15   0.2400306823E-15  -0.1755012098E-15  -0.7130230987E-15
   0.2200000000E+01  -0.1199000000E+04  -0.2637991318E-12   0.0000000000E+00   0.0000000000E+00   0.0000000000E+00   0.1200000002E+02  -0.1297882991E-14   0.2116362510E-15   0.1220677292E-14  -0.1711634964E-14   0.2223674854E-14
   0.0000000000E+00  -0.1199000000E+04  -0.2519928031E-13   0.0000000000E+00   0.0000000000E+00   0.0000000000E+00   0.1200000002E+02   0.3113292205E-14   0.1474016562E-14   0.2043469606E-14  -0.7993730146E-15   0.1699578783E-14
   0.0000000000E+00   0.0000000000E+00  -0.1199000000E+04   0.0000000000E+00   0.0000000000E+00   0.0000000000E+00   0.1200000002E+02   0.3168008526E-17  -0.1724542041E-15  -0.4280129810E-16   0.1533409699E-15  -0.1095424236E-14
   0.2200000000E+01   0.0000000000E+00  -0.1199000000E+04   0.0000000000E+00   0.0000000000E+00   0.0000000000E+00   0.1200000002E+02   0.3438444046E-16  -0.8390899740E-15  -0.1256343010E-14   0.2424977689E-14   0.1654082350E-14
   0.2200000000E+01  -0.1199000000E+04  -0.1199000000E+04   0.0000000000E+00   0.0000000000E+00   0.0000000000E+00   0.1200000002E+02   0.1469703088E-14  -0.3514463356E-15   0.2870094823E-15   0.1001527612E-14  -0.2985386763E-14
   0.0000000000E+00  -0.1199000000E+04  -0.1199000000E+04   0.0000000000E+00   0.0000000000E+00   0.0000000000E+00   0.1200000002E+02   0.3061766599E-14  -0.1884264553E-14   0.6221721263E-15   0.8788774783E-16  -0.4027470138E-15
   0.4400000000E+01   0.0000000000E+00  -0.4235661210E-12   0.0000000000E+00   0.0000000000E+00   0.0000000000E+00   0.1200000002E+02  -0.3051853384E-15  -0.2481013453E-14   0.4226296131E-16  -0.9074303774E-15  -0.1128486224E-14
   0.4400000000E+01  -0.1199000000E+04  -0.6526736454E-12   0.0000000000E+00   0.0000000000E+00   0.0000000000E+00   0.1200000002E+02  -0.7369684424E-15  -0.1613826819E-14   0.1130127149E-14  -0.1681365941E-14  -0.8992807069E-15
   0.4400000000E+01   0.0000000000E+00  -0.1199000000E+04   0.0000000000E+00   0.0000000000E+00   0.0000000000E+00   0.1200000002E+02  -0.2913791101E-15   0.5957263605E-15   0.1789060018E-15  -0.5726281912E-16   0.8625508154E-15
   0.4400000000E+01  -0.1199000000E+04  -0.1199000000E+04   0.0000000000E+00   0.0000000000E+00   0.0000000000E+00   0.1200000002E+02  -0.1454627682E-14  -0.1332285431E-14   0.1639565260E-14   0.1087996348E-14   0.1558013508E-14
     1     2     3     4     5     6     7     8
     2     9    10     3     6    11    12     7
 VARIABLES = X,Y,Z,U11,U22,U33,S11,S22,S33,S12,S13,S23
 ZONE, T="0.9000D+01" F=FEPOINT, I=   12 J=    2 ET=BRICK
   0.0000000000E+00   0.0000000000E+00   0.0000000000E+00   0.0000000000E+00   0.0000000000E+00   0.0000000000E+00   0.1350000002E+02  -0.2973995029E-15   0.1103696514E-15  -0.8057694993E-16   0.1238839758E-15  -0.9656948277E-15
   0.2350000000E+01   0.0000000000E+00   0.8344100938E-13   0.0000000000E+00   0.0000000000E+00   0.0000000000E+00   0.1350000002E+02   0.2865835064E-15   0.7844604879E-16   0.5598489465E-15   0.2595961830E-16  -0.1129673292E-14
   0.2350000000E+01  -0.1349000000E+04   0.1637467402E-12   0.0000000000E+00   0.0000000000E+00   0.0000000000E+00   0.1350000002E+02  -0.4337660660E-15  -0.2526179602E-15  -0.1080377750E-14   0.2774216984E-14   0.1196119013E-14
   0.0000000000E+00  -0.1349000000E+04  -0.1521718082E-12   0.0000000000E+00   0.0000000000E+00   0.0000000000E+00   0.1350000002E+02   0.2412651356E-15  -0.2031653372E-14  -0.8872145093E-15   0.1816186855E-14  -0.2876499409E-15
   0.0000000000E+00   0.0000000000E+00  -0.1349000000E+04   0.0000000000E+00   0.0000000000E+00   0.0000000000E+00   0.1350000002E+02  -0.1591947722E-14   0.2211822101E-14  -0.9596175600E-16  -0.2126996802E-16   0.8566530421E-16
   0.2350000000E+01   0.0000000000E+00  -0.1349000000E+04   0.0000000000E+00   0.0000000000E+00   0.0000000000E+00   0.1350000002E+02   0.5681247133E-15  -0.4846363651E-15   0.2416685841E-14  -0.1090179311E-14   0.1054875859E-14
   0.2350000000E+01  -0.1349000000E+04  -0.1349000000E+04   0.0000000000E+00   0.0000000000E+00   0.0000000000E+00   0.1350000002E+02  -0.1522248590E-15   0.5165670578E-15  -0.1158468661E-15  -0.1012736045E-14  -0.1005866807E-14
   0.0000000000E+00  -0.1349000000E+04  -0.1349000000E+04   0.0000000000E+00   0.0000000000E+00   0.0000000000E+00   0.1350000002E+02  -0.4205461606E-14  -0.5963346099E-15  -0.2215003142E-14  -0.2740787568E-14   0.6712862222E-15
   0.4700000000E+01   0.0000000000E+00   0.2357195685E-12   0.0000000000E+00   0.0000000000E+00   0.0000000000E+00   0.1350000002E+02  -0.1975082195E-14   0.2889294130E-14   0.2566242224E-15   0.7907153735E-15   0.1322563529E-14
   0.4700000000E+01  -0.1349000000E+04   0.3286294312E-12   0.0000000000E+00   0.0000000000E+00   0.0000000000E+00   0.1350000002E+02   0.2863016271E-14  -0.2441767902E-14  -0.2297840990E-14   0.7253745774E-15  -0.1973008450E-14
   0.4700000000E+01   0.0000000000E+00  -0.1349000000E+04   0.0000000000E+00   0.0000000000E+00   0.0000000000E+00   0.1350000002E+02  -0.2781986426E-14   0.2326211715E-14  -0.2474884273E-15  -0.1173151704E-14  -0.2047591077E-14
   0.4700000000E+01  -0.1349000000E+04  -0.1349000000E+04   0.0000000000E+00   0.0000000000E+00   0.0000000000E+00   0.1350000002E+02   0.5208290562E-14   0.3258182355E-15  -0.1821854675E-14  -0.1177042954E-14   0.1605782302E-14
     1     2     3     4     5     6     7     8
     2     9    10     3     6    11    12     7
 VARIABLES = X,Y,Z,U11,U22,U33,S11,S22,S33,S12,S13,S23
 ZONE, T="0.1000D+02" F=FEPOINT, I=   12 J=    2 ET=BRICK
   0.0000000000E+00   0.0000000000E+00   0.0000000000E+00   0.0000000000E+00   0.0000000000E+00   0.0000000000E+00   0.1500000002E+02   0.2027081710E-14  -0.2015898813E-14  -0.1533870378E-15   0.6486434901E-15   0.1297637645E-15
   0.2500000000E+01   0.0000000000E+00   0.1312401818E-12   0.0000000000E+00   0.0000000000E+00   0.0000000000E+00   0.1500000002E+02   0.2327716305E-15   0.2954229047E-15   0.1316271013E-14   0.5512179718E-15   0.1434839338E-15
   0.2500000000E+01  -0.1499000000E+04   0.1173827449E-12   0.0000000000E+00   0.0000000000E+00   0.0000000000E+00   0.1500000002E+02  -0.2185310271E-15  -0.6878419280E-15   0.3022640422E-15  -0.2125676670E-14  -0.7922031587E-15
   0.0000000000E+00  -0.1499000000E+04   0.1996176199E-12   0.0000000000E+00   0.0000000000E+00   0.0000000000E+00   0.1500000002E+02  -0.2756044545E-15  -0.2147631349E-14   0.1659483142E-15  -0.5338930892E-15   0.1467067566E-14
   0.0000000000E+00   0.0000000000E+00  -0.1499000000E+04   0.0000000000E+00   0.0000000000E+00   0.0000000000E+00   0.1500000002E+02   0.2566251082E-14  -0.1040611166E-14   0.5807431473E-16   0.9820944208E-15  -0.1461117608E-14
   0.2500000000E+01   0.0000000000E+00  -0.1499000000E+04   0.0000000000E+00   0.0000000000E+00   0.0000000000E+00   0.1500000002E+02  -0.2534814449E-14   0.2959957768E-14  -0.6730733394E-15  -0.7848095334E-15   0.5375781183E-15
   0.2500000000E+01  -0.1499000000E+04  -0.1499000000E+04   0.0000000000E+00   0.0000000000E+00   0.0000000000E+00   0.1500000002E+02  -0.1166206036E-14   0.6444255037E-15   0.4124328176E-15  -0.4070726923E-15  -0.3451182123E-15
   0.0000000000E+00  -0.1499000000E+04  -0.1499000000E+04   0.0000000000E+00   0.0000000000E+00   0.0000000000E+00   0.1500000002E+02   0.3350411660E-14  -0.5062100150E-15   0.8745405672E-15   0.1830618334E-14  -0.7533307103E-15
   0.5000000000E+01   0.0000000000E+00   0.3005880227E-12   0.0000000000E+00   0.0000000000E+00   0.0000000000E+00   0.1500000002E+02  -0.3160646648E-14   0.1338971312E-14  -0.8566270519E-16   0.7864582884E-15   0.1155336692E-14
   0.5000000000E+01  -0.1499000000E+04   0.2923745356E-12   0.0000000000E+00   0.0000000000E+00   0.0000000000E+00   0.1500000002E+02   0.1879256341E-14   0.2168709047E-14   0.1561571233E-14   0.1269523606E-14  -0.2865705952E-14
   0.5000000000E+01   0.0000000000E+00  -0.1499000000E+04   0.0000000000E+00   0.0000000000E+00   0.0000000000E+00   0.1500000002E+02  -0.2660963110E-15  -0.2300851198E-14  -0.6827969100E-16   0.9446214941E-15  -0.1231515482E-14
   0.5000000000E+01  -0.1499000000E+04  -0.1499000000E+04   0.0000000000E+00   0.0000000000E+00   0.0000000000E+00   0.1500000002E+02   0.7116726591E-15  -0.4801782014E-14   0.4859307275E-15  -0.3955493302E-15   0.3735733364E-14
     1     2     3     4     5     6     7     8
     2     9    10     3     6    11    12     7
 VARIABLES = X,Y,Z,U11,U22,U33,S11,S22,S33,S12,S13,S23
 ZONE, T="0.1100D+02" F=FEPOINT, I=   12 J=    2 ET=BRICK