 VARIABLES = X,Y,Z,DU1,DU2,DU3,U1,U2,U3,S11,S22,S33,S12,S13,S23,SMISES
 ZONE, T="0.1000D+01" F=FEPOINT, I=   12 J=    2 ET=BRICK
   0.0000000000E+00   0.0000000000E+00   0.0000000000E+00   0.0000000000E+00   0.0000000000E+00   0.0000000000E+00   0.0000000000E+00   0.0000000000E+00   0.0000000000E+00   0.1174312001E+01   0.8000449320E-09   0.6060085437E-07   0.1530193936E-13   0.1038021328E-06   0.7356381311E-07   0.1174311971E+01
   0.1049999976E+01   0.0000000000E+00   0.1038224355E-07   0.4999997557E-01   0.0000000000E+00   0.1038224355E-07   0.0000000000E+00   0.0000000000E+00   0.0000000000E+00   0.1174312072E+01   0.3381692804E-07  -0.1129204169E-07   0.1212850286E-06   0.1308251802E-06  -0.3318744963E-08   0.1174312060E+01
   0.1049999991E+01   0.9751957185E+00   0.9959431900E-08   0.4999999102E-01  -0.2480428148E-01   0.9959431900E-08   0.0000000000E+00   0.0000000000E+00   0.0000000000E+00   0.1174312071E+01   0.2085699591E-07   0.2561672505E-08   0.9146081466E-08   0.4490438012E-07  -0.1293619420E-07   0.1174312059E+01
   0.0000000000E+00   0.9751957358E+00   0.9372103048E-08   0.0000000000E+00  -0.2480426423E-01   0.9372103048E-08   0.0000000000E+00   0.0000000000E+00   0.0000000000E+00   0.1174312032E+01   0.8138611550E-07  -0.5063632232E-07  -0.1470754212E-06   0.4359853760E-08   0.9980275457E-08   0.1174312016E+01
   0.0000000000E+00   0.0000000000E+00   0.9751957396E+00   0.0000000000E+00   0.0000000000E+00  -0.2480426042E-01   0.0000000000E+00   0.0000000000E+00   0.0000000000E+00   0.1174312024E+01  -0.7429809229E-07   0.1126697627E-06   0.3827852014E-14  -0.1173589384E-06  -0.2234782220E-07   0.1174312005E+01
   0.1049999988E+01   0.0000000000E+00   0.9751957260E+00   0.4999998754E-01   0.0000000000E+00  -0.2480427397E-01   0.0000000000E+00   0.0000000000E+00   0.0000000000E+00   0.1174312072E+01   0.2387891099E-07  -0.1995159044E-08   0.6712738333E-07   0.9492774910E-08   0.1008807842E-07   0.1174312061E+01
   0.1049999996E+01   0.9751957173E+00   0.9751957273E+00   0.4999999609E-01  -0.2480428271E-01  -0.2480427269E-01   0.0000000000E+00   0.0000000000E+00   0.0000000000E+00   0.1174312071E+01   0.1091899374E-07   0.1185856969E-07  -0.1290956498E-07  -0.3203274277E-07   0.4706283857E-09   0.1174312060E+01
   0.0000000000E+00   0.9751957277E+00   0.9751957367E+00   0.0000000000E+00  -0.2480427233E-01  -0.2480426327E-01   0.0000000000E+00   0.0000000000E+00   0.0000000000E+00   0.1174312044E+01   0.1170370826E-07   0.6848316254E-08  -0.8217731575E-07  -0.7502114850E-07  -0.8593133264E-07   0.1174312035E+01
   0.2100000000E+01   0.0000000000E+00   0.9395489861E-08   0.1000000000E+00   0.0000000000E+00   0.9395489861E-08   0.0000000000E+00   0.0000000000E+00   0.0000000000E+00   0.1174312130E+01  -0.1369942247E-07   0.9327582258E-08  -0.1476475542E-13  -0.3005473517E-07   0.1003749547E-07   0.1174312132E+01
   0.2100000000E+01   0.9751957072E+00   0.1067427764E-07   0.1000000000E+00  -0.2480429280E-01   0.1067427764E-07   0.0000000000E+00   0.0000000000E+00   0.0000000000E+00   0.1174312106E+01   0.5312719940E-08   0.1409761067E-07  -0.7720248583E-07   0.5861209622E-08   0.1065798813E-07   0.1174312096E+01
   0.2100000000E+01   0.0000000000E+00   0.9751957181E+00   0.1000000000E+00   0.0000000000E+00  -0.2480428194E-01   0.0000000000E+00   0.0000000000E+00   0.0000000000E+00   0.1174312111E+01  -0.3663140240E-08   0.1812288142E-07  -0.5022898370E-14  -0.5155850814E-07   0.2916439400E-08   0.1174312104E+01
   0.2100000000E+01   0.9751957073E+00   0.9751957184E+00   0.1000000000E+00  -0.2480429272E-01  -0.2480428157E-01   0.0000000000E+00   0.0000000000E+00   0.0000000000E+00   0.1174312098E+01   0.9933296573E-08   0.1747720487E-07  -0.7789658339E-07  -0.6863203302E-07   0.3536931524E-08   0.1174312084E+01
     1     2     3     4     5     6     7     8
     2     9    10     3     6    11    12     7
 VARIABLES = X,Y,Z,DU1,DU2,DU3,U1,U2,U3,S11,S22,S33,S12,S13,S23,SMISES
 ZONE, T="0.2000D+01" F=FEPOINT, I=   12 J=    2 ET=BRICK
   0.0000000000E+00   0.0000000000E+00   0.0000000000E+00   0.0000000000E+00   0.0000000000E+00   0.0000000000E+00   0.0000000000E+00   0.0000000000E+00   0.0000000000E+00   0.1258749096E+01   0.2027196307E-07   0.5248174785E-07   0.6042719116E-13   0.7858391159E-07   0.8286174457E-07   0.1258749059E+01
   0.1099999905E+01   0.0000000000E+00   0.1424236857E-07   0.4999992958E-01   0.0000000000E+00   0.3860125017E-08   0.4999997557E-01   0.0000000000E+00   0.1038224355E-07   0.1258749240E+01   0.3144619989E-07  -0.1251673500E-07   0.2307582126E-06   0.2579414966E-06  -0.4073566834E-08   0.1258749230E+01
   0.1099999960E+01   0.9502097917E+00   0.1327286564E-07   0.4999996905E-01  -0.2498592678E-01   0.3313433741E-08   0.4999999102E-01  -0.2480428148E-01   0.9959431900E-08   0.1258749238E+01   0.9195379925E-08   0.1126855578E-07   0.1509800809E-07   0.1213626167E-06  -0.1152016281E-07   0.1258749228E+01
   0.0000000000E+00   0.9502098484E+00   0.1972095990E-07   0.0000000000E+00  -0.2498588741E-01   0.1034885686E-07   0.0000000000E+00  -0.2480426423E-01   0.9372103048E-08   0.1258749149E+01   0.1038253731E-06  -0.8457706911E-07  -0.2490052849E-06  -0.3172168397E-07  -0.1147328349E-07   0.1258749139E+01
   0.0000000000E+00   0.0000000000E+00   0.9502098522E+00   0.0000000000E+00   0.0000000000E+00  -0.2498588739E-01   0.0000000000E+00   0.0000000000E+00  -0.2480426042E-01   0.1258749149E+01  -0.1007657754E-06   0.1201140064E-06   0.1308949781E-13  -0.2259449368E-06  -0.2744439356E-07   0.1258749139E+01
   0.1099999961E+01   0.0000000000E+00   0.9502098008E+00   0.4999997368E-01   0.0000000000E+00  -0.2498592527E-01   0.4999998754E-01   0.0000000000E+00  -0.2480427397E-01   0.1258749240E+01   0.2375135572E-07  -0.5318385927E-08   0.1343741800E-06   0.3906913213E-07   0.1894448899E-07   0.1258749231E+01
   0.1099999993E+01   0.9502097900E+00   0.9502098053E+00   0.4999999711E-01  -0.2498592732E-01  -0.2498592205E-01   0.4999999609E-01  -0.2480428271E-01  -0.2480427269E-01   0.1258749238E+01   0.1500590052E-08   0.1846695929E-07  -0.2860579699E-07  -0.3858528512E-07   0.1149789188E-07   0.1258749228E+01
   0.0000000000E+00   0.9502098259E+00   0.9502098457E+00   0.0000000000E+00  -0.2498590176E-01  -0.2498589107E-01   0.0000000000E+00  -0.2480427233E-01  -0.2480426327E-01   0.1258749183E+01  -0.7573971011E-08  -0.7306413185E-08  -0.1450127819E-06  -0.1657263914E-06  -0.1217793607E-06   0.1258749190E+01
   0.2200000000E+01   0.0000000000E+00   0.1064290262E-07   0.1000000000E+00   0.0000000000E+00   0.1247412760E-08   0.1000000000E+00   0.0000000000E+00   0.9395489861E-08   0.1258749373E+01  -0.2183907605E-07  -0.2477872143E-08  -0.5983625454E-13  -0.3386549472E-07   0.2472034531E-08   0.1258749385E+01
   0.2200000000E+01   0.9502097457E+00   0.1123124340E-07   0.1000000000E+00  -0.2498596149E-01   0.5569657626E-09   0.1000000000E+00  -0.2480429280E-01   0.1067427764E-07   0.1258749326E+01  -0.6054620315E-08   0.2839220330E-07  -0.1823151439E-06  -0.3949634027E-08   0.1349752640E-07   0.1258749315E+01
   0.2200000000E+01   0.0000000000E+00   0.9502097587E+00   0.1000000000E+00   0.0000000000E+00  -0.2498595941E-01   0.1000000000E+00   0.0000000000E+00  -0.2480428194E-01   0.1258749325E+01   0.1311220035E-07   0.1042242102E-07  -0.1532131485E-13  -0.1670814204E-06   0.1001484511E-07   0.1258749313E+01
   0.2200000000E+01   0.9502097483E+00   0.9502097610E+00   0.1000000000E+00  -0.2498595895E-01  -0.2498595740E-01   0.1000000000E+00  -0.2480429272E-01  -0.2480428157E-01   0.1258749298E+01   0.1925821869E-07   0.3165406392E-07  -0.1809471653E-06  -0.1898407101E-06   0.2104034282E-07   0.1258749272E+01
     1     2     3     4     5     6     7     8
     2     9    10     3     6    11    12     7
 VARIABLES = X,Y,Z,DU1,DU2,DU3,U1,U2,U3,S11,S22,S33,S12,S13,S23,SMISES
 ZONE, T="0.3000D+01" F=FEPOINT, I=   12 J=    2 ET=BRICK
   0.0000000000E+00   0.0000000000E+00   0.0000000000E+00   0.0000000000E+00   0.0000000000E+00   0.0000000000E+00   0.0000000000E+00   0.0000000000E+00   0.0000000000E+00   0.1310892065E+01   0.9071901525E-11   0.1935224887E-10   0.2173214750E-16   0.3017784766E-10   0.3247666982E-10   0.1310892065E+01
   0.1150000000E+01   0.0000000000E+00   0.7811193342E-11   0.5000009479E-01   0.0000000000E+00  -0.1423455737E-07   0.9999990515E-01   0.0000000000E+00   0.1424236857E-07   0.1310892065E+01   0.1202055427E-10  -0.5483955511E-11   0.9614736745E-10   0.1079154813E-09  -0.2249577397E-11   0.1310892065E+01
   0.1150000000E+01   0.9252184820E+00   0.7039714537E-11   0.5000003990E-01  -0.2499130973E-01  -0.1326582593E-07   0.9999996007E-01  -0.4979020826E-01   0.1327286564E-07   0.1310892065E+01   0.2386017520E-11   0.5087630243E-11   0.6791248353E-11   0.5133394783E-10  -0.4864769236E-11   0.1310892065E+01
   0.0000000000E+00   0.9252184820E+00   0.1113769511E-10   0.0000000000E+00  -0.2499136632E-01  -0.1970982221E-07   0.0000000000E+00  -0.4979015164E-01   0.1972095990E-07   0.1310892065E+01   0.4103158232E-10  -0.3496430604E-10  -0.1019518961E-09  -0.1402951832E-10  -0.6210306700E-11   0.1310892065E+01
   0.0000000000E+00   0.0000000000E+00   0.9252184820E+00   0.0000000000E+00   0.0000000000E+00  -0.2499137015E-01   0.0000000000E+00   0.0000000000E+00  -0.4979014781E-01   0.1310892065E+01  -0.4108467935E-10   0.4657002883E-10  -0.2894356078E-16  -0.9235423435E-10  -0.1066162142E-10   0.1310892065E+01
   0.1150000000E+01   0.0000000000E+00   0.9252184820E+00   0.5000003876E-01   0.0000000000E+00  -0.2499131874E-01   0.9999996122E-01   0.0000000000E+00  -0.4979019925E-01   0.1310892065E+01   0.9441065340E-11  -0.2833025399E-11   0.5532994141E-10   0.1804219648E-10   0.7853386964E-11   0.1310892065E+01
   0.1150000000E+01   0.9252184820E+00   0.9252184820E+00   0.5000000680E-01  -0.2499130796E-01  -0.2499132324E-01   0.9999999320E-01  -0.4979021003E-01  -0.4979019474E-01   0.1310892065E+01  -0.3242904837E-12   0.7607332648E-11  -0.1214853626E-10  -0.1528886481E-10   0.5238223849E-11   0.1310892065E+01
   0.0000000000E+00   0.9252184820E+00   0.9252184820E+00   0.0000000000E+00  -0.2499134388E-01  -0.2499136362E-01   0.0000000000E+00  -0.4979017409E-01  -0.4979015434E-01   0.1310892065E+01  -0.4819900032E-11  -0.3441874688E-11  -0.5878291089E-10  -0.6832500317E-10  -0.4934853992E-10   0.1310892065E+01
   0.2300000000E+01   0.0000000000E+00   0.5469857314E-11   0.1000000000E+00   0.0000000000E+00  -0.1063743276E-07   0.2000000000E+00   0.0000000000E+00   0.1064290262E-07   0.1310892065E+01  -0.9438697917E-11  -0.1226365900E-11   0.3327781969E-16  -0.1422823672E-10   0.9485518223E-12   0.1310892065E+01
   0.2300000000E+01   0.9252184820E+00   0.5795146315E-11   0.1000000000E+00  -0.2499126372E-01  -0.1122544826E-07   0.2000000000E+00  -0.4979025429E-01   0.1123124340E-07   0.1310892065E+01  -0.3238938487E-11   0.1169844306E-10  -0.7676033036E-10  -0.1548979063E-11   0.6016771022E-11   0.1310892065E+01
   0.2300000000E+01   0.0000000000E+00   0.9252184820E+00   0.1000000000E+00   0.0000000000E+00  -0.2499127666E-01   0.2000000000E+00   0.0000000000E+00  -0.4979024135E-01   0.1310892065E+01   0.5753976275E-11   0.3829414743E-11  -0.3901475961E-16  -0.7144221948E-10   0.4310992324E-11   0.1310892065E+01
   0.2300000000E+01   0.9252184820E+00   0.9252184820E+00   0.1000000000E+00  -0.2499126635E-01  -0.2499127905E-01   0.2000000000E+00  -0.4979025167E-01  -0.4979023896E-01   0.1310892065E+01   0.8036459771E-11   0.1283699805E-10  -0.7617400457E-10  -0.8049937023E-10   0.9379316106E-11   0.1310892065E+01
     1     2     3     4     5     6     7     8
     2     9    10     3     6    11    12     7
 VARIABLES = X,Y,Z,DU1,DU2,DU3,U1,U2,U3,S11,S22,S33,S12,S13,S23,SMISES
 ZONE, T="0.4000D+01" F=FEPOINT, I=   12 J=    2 ET=BRICK
   0.0000000000E+00   0.0000000000E+00   0.0000000000E+00   0.0000000000E+00   0.0000000000E+00   0.0000000000E+00   0.0000000000E+00   0.0000000000E+00   0.0000000000E+00   0.1349181193E+01   0.1647656462E-07   0.5003129060E-06   0.9957146395E-12   0.9397302667E-06   0.5392319914E-06   0.1349180934E+01
   0.1199999279E+01   0.0000000000E+00   0.3272373215E-06   0.4999927932E-01   0.0000000000E+00   0.3272295103E-06   0.1499999999E+00   0.0000000000E+00   0.7811193342E-11   0.1349181804E+01   0.2695704583E-06  -0.8002853593E-07   0.1013927603E-05   0.1083997049E-05  -0.6077104334E-07   0.1349181710E+01
   0.1199999730E+01   0.9002248384E+00   0.3002318638E-06   0.4999972986E-01  -0.2499364360E-01   0.3002248241E-06   0.1500000000E+00  -0.7478151799E-01   0.7039714537E-11   0.1349181796E+01   0.1530582981E-06   0.4451760426E-07   0.4223816590E-07   0.4100331366E-06  -0.9034547551E-07   0.1349181697E+01
   0.0000000000E+00   0.9002253875E+00   0.2396236615E-06   0.0000000000E+00  -0.2499309459E-01   0.2396125238E-06   0.0000000000E+00  -0.7478151796E-01   0.1113769511E-10   0.1349181446E+01   0.6562057125E-06  -0.3933138002E-06  -0.1367473812E-05   0.1531322741E-06  -0.9004605798E-08   0.1349181315E+01
   0.0000000000E+00   0.0000000000E+00   0.9002254950E+00   0.0000000000E+00   0.0000000000E+00  -0.2499298708E-01   0.0000000000E+00   0.0000000000E+00  -0.7478151795E-01   0.1349181380E+01  -0.6254621667E-06   0.9548459370E-06   0.2972847571E-12  -0.1019263587E-05  -0.2274465191E-06   0.1349181215E+01
   0.1199999614E+01   0.0000000000E+00   0.9002250880E+00   0.4999961447E-01   0.0000000000E+00  -0.2499339405E-01   0.1500000000E+00   0.0000000000E+00  -0.7478151798E-01   0.1349181806E+01   0.2390095570E-06  -0.5144051678E-07   0.5667798740E-06   0.4518861455E-07   0.5975812433E-07   0.1349181712E+01
   0.1199999866E+01   0.9002248253E+00   0.9002251145E+00   0.4999986632E-01  -0.2499365675E-01  -0.2499336750E-01   0.1500000000E+00  -0.7478151799E-01  -0.7478151798E-01   0.1349181798E+01   0.1224979997E-06   0.7310622658E-07  -0.1274508231E-06  -0.2829777330E-06   0.3018364140E-07   0.1349181700E+01
   0.0000000000E+00   0.9002251438E+00   0.9002253939E+00   0.0000000000E+00  -0.2499333820E-01  -0.2499308815E-01   0.0000000000E+00  -0.7478151797E-01  -0.7478151796E-01   0.1349181544E+01   0.5898214623E-07   0.1059343073E-06  -0.7282110437E-06  -0.6479468050E-06  -0.7756816008E-06   0.1349181462E+01
   0.2400000000E+01   0.0000000000E+00   0.2930382724E-06   0.1000000000E+00   0.0000000000E+00   0.2930328026E-06   0.3000000000E+00   0.0000000000E+00   0.5469857314E-11   0.1349182299E+01  -0.1180475243E-06   0.9731477822E-07  -0.1020237184E-11  -0.2802968511E-06   0.8559948619E-07   0.1349182309E+01
   0.2400000000E+01   0.9002245239E+00   0.3310770947E-06   0.1000000000E+00  -0.2499395812E-01   0.3310712995E-06   0.3000000000E+00  -0.7478151802E-01   0.5795146315E-11   0.1349182101E+01   0.5592570211E-07   0.1211218455E-06  -0.5759062406E-06   0.5266737100E-07   0.9228189077E-07   0.1349182013E+01
   0.2400000000E+01   0.0000000000E+00   0.9002248647E+00   0.1000000000E+00   0.0000000000E+00  -0.2499361724E-01   0.3000000000E+00   0.0000000000E+00  -0.7478151801E-01   0.1349182148E+01  -0.3571410040E-07   0.1662835394E-06  -0.2973489882E-12  -0.3989223087E-06   0.1051643030E-07   0.1349182082E+01
   0.2400000000E+01   0.9002245268E+00   0.9002248694E+00   0.1000000000E+00  -0.2499395516E-01  -0.2499361257E-01   0.3000000000E+00  -0.7478151802E-01  -0.7478151801E-01   0.1349182039E+01   0.9354421842E-07   0.1453756753E-06  -0.6602505414E-06  -0.5322754606E-06   0.1719881530E-07   0.1349181920E+01
     1     2     3     4     5     6     7     8
     2     9    10     3     6    11    12     7
 VARIABLES = X,Y,Z,DU1,DU2,DU3,U1,U2,U3,S11,S22,S33,S12,S13,S23,SMISES
 ZONE, T="0.5000D+01" F=FEPOINT, I=   12 J=    2 ET=BRICK
   0.0000000000E+00   0.0000000000E+00   0.0000000000E+00   0.0000000000E+00   0.0000000000E+00   0.0000000000E+00   0.0000000000E+00   0.0000000000E+00   0.0000000000E+00   0.1379644525E+01   0.1288279911E-06   0.4955522884E-06   0.1120767308E-11   0.2902869282E-06   0.6740628647E-06   0.1379644213E+01
   0.1249998988E+01   0.0000000000E+00   0.1204293896E-06   0.4999970838E-01   0.0000000000E+00  -0.2068079319E-06   0.1999992793E+00   0.0000000000E+00   0.3272373215E-06   0.1379645175E+01   0.2303657215E-06   0.3566250483E-07   0.1031359056E-05   0.1174764099E-05   0.1876740248E-06   0.1379645042E+01
   0.1249999548E+01   0.8752299590E+00   0.2223898717E-06   0.4999981813E-01  -0.2499487937E-01  -0.7784199208E-07   0.1999997298E+00  -0.9977516159E-01   0.3002318638E-06   0.1379645178E+01   0.2867406462E-06  -0.2460210253E-07   0.1158954336E-07   0.5259897962E-06  -0.1311014739E-08   0.1379645047E+01
   0.0000000000E+00   0.8752306164E+00   0.3662068206E-06   0.0000000000E+00  -0.2499477105E-01   0.1265831591E-06   0.0000000000E+00  -0.9977461254E-01   0.2396236615E-06   0.1379644790E+01   0.8892563795E-06  -0.5307032588E-06  -0.1305104556E-05  -0.2905974445E-06   0.9688042181E-07   0.1379644611E+01
   0.0000000000E+00   0.0000000000E+00   0.8752307160E+00   0.0000000000E+00   0.0000000000E+00  -0.2499477894E-01   0.0000000000E+00   0.0000000000E+00  -0.9977450504E-01   0.1379644781E+01  -0.5766247098E-06   0.9444616091E-06   0.2786251311E-12  -0.1392884378E-05  -0.2192801276E-06   0.1379644597E+01
   0.1249999580E+01   0.0000000000E+00   0.8752300266E+00   0.4999996555E-01   0.0000000000E+00  -0.2499506139E-01   0.1999996144E+00   0.0000000000E+00  -0.9977491203E-01   0.1379645187E+01   0.3508037065E-07   0.2183472476E-06   0.6799803993E-06   0.6898348260E-07   0.1293542554E-06   0.1379645060E+01
   0.1249999949E+01   0.8752298564E+00   0.8752300969E+00   0.5000008311E-01  -0.2499496890E-01  -0.2499501767E-01   0.1999998663E+00  -0.9977517474E-01  -0.9977488548E-01   0.1379645191E+01   0.9145621941E-07   0.1580835646E-06  -0.8756222439E-07  -0.1420673750E-06  -0.5963080536E-07   0.1379645066E+01
   0.0000000000E+00   0.8752303028E+00   0.8752305969E+00   0.0000000000E+00  -0.2499484100E-01  -0.2499479700E-01   0.0000000000E+00  -0.9977485617E-01  -0.9977460611E-01   0.1379644977E+01   0.2189407522E-06  -0.4665615384E-07  -0.8489237211E-06  -0.9400954445E-06  -0.7964601295E-06   0.1379644890E+01
   0.2500000000E+01   0.0000000000E+00   0.9174669174E-07   0.1000000000E+00   0.0000000000E+00  -0.2012915807E-06   0.4000000000E+00   0.0000000000E+00   0.2930382724E-06   0.1379645748E+01  -0.1916036632E-07   0.3519990478E-08  -0.1193431861E-11  -0.1214120816E-06   0.7926928489E-07   0.1379645756E+01
   0.2500000000E+01   0.8752295084E+00   0.1348127304E-06   0.1000000000E+00  -0.2499501550E-01  -0.1962643642E-06   0.4000000000E+00  -0.9977547614E-01   0.3310770947E-06   0.1379645543E+01   0.1012737434E-06   0.8816558854E-07  -0.7344351040E-06  -0.1353196871E-06   0.6543122875E-08   0.1379645448E+01
   0.2500000000E+01   0.0000000000E+00   0.8752296063E+00   0.1000000000E+00   0.0000000000E+00  -0.2499525848E-01   0.4000000000E+00   0.0000000000E+00  -0.9977513525E-01   0.1379645534E+01   0.1472229277E-07   0.1828553179E-06  -0.3175404391E-12  -0.6498032994E-06   0.6137528623E-07   0.1379645436E+01
   0.2500000000E+01   0.8752294688E+00   0.8752296396E+00   0.1000000000E+00  -0.2499505798E-01  -0.2499522981E-01   0.4000000000E+00  -0.9977547317E-01  -0.9977513058E-01   0.1379645399E+01   0.1000178294E-06   0.2323625828E-06  -0.6861616416E-06  -0.8219357299E-06  -0.1135113332E-07   0.1379645233E+01
     1     2     3     4     5     6     7     8
     2     9    10     3     6    11    12     7
 VARIABLES = X,Y,Z,DU1,DU2,DU3,U1,U2,U3,S11,S22,S33,S12,S13,S23,SMISES
 ZONE, T="0.6000D+01" F=FEPOINT, I=   12 J=    2 ET=BRICK
   0.0000000000E+00   0.0000000000E+00   0.0000000000E+00   0.0000000000E+00   0.0000000000E+00   0.0000000000E+00   0.0000000000E+00   0.0000000000E+00   0.0000000000E+00   0.1405042330E+01   0.3649368165E-07   0.3636478607E-06   0.5268523117E-12   0.5434427846E-06   0.4224451216E-06   0.1405042130E+01
   0.1299999209E+01   0.0000000000E+00   0.2718285184E-06   0.5000022178E-01   0.0000000000E+00   0.1513991288E-06   0.2499989876E+00   0.0000000000E+00   0.1204293896E-06   0.1405042784E+01   0.1879500105E-06  -0.3311927182E-07   0.7428810412E-06   0.8099373359E-06   0.9854699256E-08   0.1405042707E+01
   0.1299999685E+01   0.8502341599E+00   0.2781376790E-06   0.5000013706E-01  -0.2499579915E-01   0.5574780731E-07   0.2499995480E+00  -0.1247700410E+00   0.2223898717E-06   0.1405042781E+01   0.1407054687E-06   0.1738268489E-07   0.2410485016E-07   0.3241610796E-06  -0.4644867931E-07   0.1405042702E+01
   0.0000000000E+00   0.8502347329E+00   0.2704558458E-06   0.0000000000E+00  -0.2499588349E-01  -0.9575097489E-07   0.0000000000E+00  -0.1247693836E+00   0.3662068206E-06   0.1405042517E+01   0.5291117090E-06  -0.3166432623E-06  -0.9831976419E-06   0.1491388925E-07   0.1651462021E-07   0.1405042411E+01
   0.0000000000E+00   0.0000000000E+00   0.8502348376E+00   0.0000000000E+00   0.0000000000E+00  -0.2499587838E-01   0.0000000000E+00   0.0000000000E+00  -0.1247692840E+00   0.1405042481E+01  -0.4452726230E-06   0.6937416122E-06   0.1490432547E-12  -0.8244024073E-06  -0.1640098173E-06   0.1405042357E+01
   0.1299999608E+01   0.0000000000E+00   0.8502343609E+00   0.5000002831E-01   0.0000000000E+00  -0.2499566563E-01   0.2499995800E+00   0.0000000000E+00  -0.1247699734E+00   0.1405042788E+01   0.1297695104E-06   0.2130701394E-07   0.4378190788E-06   0.3811831625E-07   0.5872795621E-07   0.1405042712E+01
   0.1299999889E+01   0.8502341238E+00   0.8502343985E+00   0.4999993919E-01  -0.2499573253E-01  -0.2499569831E-01   0.2499999494E+00  -0.1247701436E+00  -0.1247699031E+00   0.1405042784E+01   0.8252524363E-07   0.7180924600E-07  -0.8421091049E-07  -0.1755633640E-06   0.2424552751E-08   0.1405042707E+01
   0.0000000000E+00   0.8502344730E+00   0.8502347326E+00   0.0000000000E+00  -0.2499582980E-01  -0.2499586425E-01   0.0000000000E+00  -0.1247696972E+00  -0.1247694031E+00   0.1405042608E+01   0.7785134043E-07   0.4395648060E-07  -0.5571307435E-06  -0.5359855269E-06  -0.5699394036E-06   0.1405042547E+01
   0.2600000000E+01   0.0000000000E+00   0.2392907391E-06   0.1000000000E+00   0.0000000000E+00   0.1475440473E-06   0.5000000000E+00   0.0000000000E+00   0.9174669174E-07   0.1405043162E+01  -0.6449053265E-07   0.5049312878E-07  -0.5463736951E-12  -0.1696764001E-06   0.6101615392E-07   0.1405043169E+01
   0.2600000000E+01   0.8502338126E+00   0.2783543702E-06   0.1000000000E+00  -0.2499569579E-01   0.1435416398E-06   0.5000000000E+00  -0.1247704916E+00   0.1348127304E-06   0.1405043016E+01   0.5065422076E-07   0.8110707302E-07  -0.4543552622E-06  -0.2576712218E-08   0.4857898306E-07   0.1405042950E+01
   0.2600000000E+01   0.0000000000E+00   0.8502340887E+00   0.1000000000E+00   0.0000000000E+00  -0.2499551760E-01   0.5000000000E+00   0.0000000000E+00  -0.1247703937E+00   0.1405043038E+01  -0.1503687818E-07   0.1248212204E-06  -0.1567623312E-12  -0.3454703317E-06   0.1875079272E-07   0.1405042983E+01
   0.2600000000E+01   0.8502338046E+00   0.8502341007E+00   0.1000000000E+00  -0.2499566424E-01  -0.2499553894E-01   0.5000000000E+00  -0.1247705312E+00  -0.1247703604E+00   0.1405042953E+01   0.6960155845E-07   0.1249288769E-06  -0.4869293260E-06  -0.4511262021E-06   0.6313583336E-08   0.1405042856E+01
     1     2     3     4     5     6     7     8
     2     9    10     3     6    11    12     7
 VARIABLES = X,Y,Z,DU1,DU2,DU3,U1,U2,U3,S11,S22,S33,S12,S13,S23,SMISES
 ZONE, T="0.7000D+01" F=FEPOINT, I=   12 J=    2 ET=BRICK
   0.0000000000E+00   0.0000000000E+00   0.0000000000E+00   0.0000000000E+00   0.0000000000E+00   0.0000000000E+00   0.0000000000E+00   0.0000000000E+00   0.0000000000E+00   0.1426878787E+01   0.5583141072E-07   0.1427121126E-06   0.9598576339E-13  -0.2304407272E-07   0.2174226656E-06   0.1426878688E+01
   0.1349999574E+01   0.0000000000E+00  -0.1522281044E-07   0.5000036440E-01   0.0000000000E+00  -0.2870513288E-06   0.2999992094E+00   0.0000000000E+00   0.2718285184E-06   0.1426878982E+01   0.6024129135E-07   0.2940428672E-07   0.3015242045E-06   0.3551430329E-06   0.9531508471E-07   0.1426878937E+01
   0.1349999796E+01   0.8252378312E+00   0.5488510986E-07   0.5000011058E-01  -0.2499632866E-01  -0.2232525692E-06   0.2999996850E+00  -0.1497658401E+00   0.2781376790E-06   0.1426878985E+01   0.1050752704E-06  -0.1852169064E-07  -0.1697923300E-08   0.1714332129E-06   0.1430291730E-07   0.1426878941E+01
   0.0000000000E+00   0.8252380858E+00   0.1599225765E-06   0.0000000000E+00  -0.2499664707E-01  -0.1105332693E-06   0.0000000000E+00  -0.1497652671E+00   0.2704558458E-06   0.1426878866E+01   0.2959334276E-06  -0.1763327018E-06  -0.3676315460E-06  -0.1573270897E-06   0.4551732591E-07   0.1426878806E+01
   0.0000000000E+00   0.0000000000E+00   0.8252381178E+00   0.0000000000E+00   0.0000000000E+00  -0.2499671984E-01   0.0000000000E+00   0.0000000000E+00  -0.1497651624E+00   0.1426878873E+01  -0.1589183035E-06   0.2717727704E-06   0.1977718421E-13  -0.4649530030E-06  -0.6215085723E-07   0.1426878816E+01
   0.1349999847E+01   0.0000000000E+00   0.8252378047E+00   0.5000023850E-01   0.0000000000E+00  -0.2499655628E-01   0.2999996083E+00   0.0000000000E+00  -0.1497656391E+00   0.1426878987E+01  -0.2347112565E-07   0.1077161997E-06   0.2155706581E-06   0.2389901051E-07   0.4893510394E-07   0.1426878945E+01
   0.1350000005E+01   0.8252377716E+00   0.8252378407E+00   0.5000011676E-01  -0.2499635220E-01  -0.2499655789E-01   0.2999998886E+00  -0.1497658762E+00  -0.1497656015E+00   0.1426878990E+01   0.2136264649E-07   0.5979001490E-07  -0.1877623270E-07  -0.1789943462E-07  -0.3207706139E-07   0.1426878949E+01
   0.0000000000E+00   0.8252379594E+00   0.8252380721E+00   0.0000000000E+00  -0.2499651363E-01  -0.2499666056E-01   0.0000000000E+00  -0.1497655270E+00  -0.1497652674E+00   0.1426878934E+01   0.8977890712E-07  -0.3867674036E-07  -0.2657295941E-06  -0.3204014872E-06  -0.2340559498E-06   0.1426878909E+01
   0.2700000000E+01   0.0000000000E+00  -0.2353745415E-07   0.1000000000E+00   0.0000000000E+00  -0.2628281932E-06   0.6000000000E+00   0.0000000000E+00   0.2392907391E-06   0.1426879160E+01   0.1075866268E-07  -0.1444826548E-07  -0.1041868114E-12  -0.8956266232E-08   0.2190981829E-07   0.1426879162E+01
   0.2700000000E+01   0.8252376398E+00  -0.7421899715E-08   0.1000000000E+00  -0.2499617279E-01  -0.2857762700E-06   0.6000000000E+00  -0.1497661874E+00   0.2783543702E-06   0.1426879100E+01   0.3680302654E-07   0.2009505326E-07  -0.2388127359E-06  -0.7018581498E-07  -0.1224478052E-07   0.1426879071E+01
   0.2700000000E+01   0.0000000000E+00   0.8252376070E+00   0.1000000000E+00   0.0000000000E+00  -0.2499648170E-01   0.6000000000E+00   0.0000000000E+00  -0.1497659113E+00   0.1426879088E+01   0.1257961174E-07   0.5568192586E-07  -0.2640499285E-13  -0.2295354280E-06   0.2615933085E-07   0.1426879054E+01
   0.2700000000E+01   0.8252376147E+00   0.8252376262E+00   0.1000000000E+00  -0.2499618995E-01  -0.2499647446E-01   0.6000000000E+00  -0.1497661954E+00  -0.1497658993E+00   0.1426879045E+01   0.3002903464E-07   0.8163033487E-07  -0.2029641934E-06  -0.2857766650E-06  -0.7995305851E-08   0.1426878989E+01
     1     2     3     4     5     6     7     8
     2     9    10     3     6    11    12     7
 VARIABLES = X,Y,Z,DU1,DU2,DU3,U1,U2,U3,S11,S22,S33,S12,S13,S23,SMISES
 ZONE, T="0.8000D+01" F=FEPOINT, I=   12 J=    2 ET=BRICK
   0.0000000000E+00   0.0000000000E+00   0.0000000000E+00   0.0000000000E+00   0.0000000000E+00   0.0000000000E+00   0.0000000000E+00   0.0000000000E+00   0.0000000000E+00   0.1446067381E+01  -0.2451079557E-07   0.8124524844E-07   0.1604675223E-13   0.3073690777E-06   0.5375052469E-07   0.1446067352E+01
   0.1399999833E+01   0.0000000000E+00   0.2009590966E-06   0.5000025920E-01   0.0000000000E+00   0.2161819070E-06   0.3499995738E+00   0.0000000000E+00  -0.1522281044E-07   0.1446067469E+01   0.5262892815E-07  -0.4076537914E-07   0.1581185728E-06   0.1516159700E-06  -0.6975751186E-07   0.1446067463E+01
   0.1399999964E+01   0.8002409856E+00   0.1430949889E-06   0.5000016858E-01  -0.2499684561E-01   0.8820987909E-07   0.3499997956E+00  -0.1747621688E+00   0.5488510986E-07   0.1446067465E+01  -0.7795774163E-08   0.2382595900E-07   0.1416514297E-07   0.3763062651E-07  -0.3597619164E-07   0.1446067457E+01
   0.0000000000E+00   0.8002411548E+00   0.4458625276E-07   0.0000000000E+00  -0.2499693102E-01  -0.1153363237E-06   0.0000000000E+00  -0.1747619142E+00   0.1599225765E-06   0.1446067418E+01   0.4874248106E-07  -0.2977318972E-07  -0.2340031247E-06   0.1317360467E-06  -0.2702713908E-07   0.1446067409E+01
   0.0000000000E+00   0.0000000000E+00   0.8002411987E+00   0.0000000000E+00   0.0000000000E+00  -0.2499691911E-01   0.0000000000E+00   0.0000000000E+00  -0.1747618822E+00   0.1446067394E+01  -0.1119369515E-06   0.1553744291E-06   0.5860339821E-14  -0.7290645230E-07  -0.3838533398E-07   0.1446067372E+01
   0.1399999866E+01   0.0000000000E+00   0.8002411478E+00   0.5000001903E-01   0.0000000000E+00  -0.2499665682E-01   0.3499998468E+00   0.0000000000E+00  -0.1747621953E+00   0.1446067467E+01   0.8753644718E-07  -0.7342050333E-07   0.6339151948E-07   0.1481640065E-08  -0.7249492217E-08   0.1446067460E+01
   0.1399999918E+01   0.8002410136E+00   0.8002411418E+00   0.4999991305E-01  -0.2499675800E-01  -0.2499669883E-01   0.3500000054E+00  -0.1747622284E+00  -0.1747621593E+00   0.1446067463E+01   0.2711221293E-07  -0.8828697364E-08  -0.3004490888E-07  -0.7935513719E-07   0.2653182881E-07   0.1446067453E+01
   0.0000000000E+00   0.8002410878E+00   0.8002411668E+00   0.0000000000E+00  -0.2499687158E-01  -0.2499690523E-01   0.0000000000E+00  -0.1747620406E+00  -0.1747619279E+00   0.1446067412E+01  -0.2921181317E-07   0.5382784136E-07  -0.8742315377E-07  -0.3314785658E-07  -0.1191629904E-06   0.1446067400E+01